LAMMPS data file via write_data, version 2 Aug 2023, timestep = 7, units = real

5 atoms
4 atom types

0 11.534608657427437 xlo xhi
0 13.31901882672544 ylo yhi
-0.0706347639834664 14.12695279669328 zlo zhi

Atom Type Labels

1 Au
2 S
3 C
4 H

Masses

1 196.97
2 32.06
3 12.011
4 1.008

Atoms # charge

1 2 -0.0390127325187542 5 5 5 0 0 0
2 3 -0.1713080757544087 4.979055307153982 5.000442397513093 6.8014497006835155 0 0 0
3 4 0.07010840574164889 4.443014565882763 5.924285781850024 7.175224159209074 0 0 0
4 4 0.0701141641784222 6.039150273966113 4.997746913521235 7.196935704290685 0 0 0
5 4 0.07009823835309181 4.438528923791942 4.079256086991966 7.175450783439042 0 0 0

Velocities

1 0 0 0
2 0 0 0
3 0 0 0
4 0 0 0
5 0 0 0
