# LAMMPS data file written by OVITO Basic 3.9.2

6 atoms
4 atom types

0.594386 9.4007630627 xlo xhi
4.062311 11.6888572516 ylo yhi
-6.52518 15.0619890161 zlo zhi
-4.4031885313 0.0 0.0 xy xz yz

Masses

1 196.96655  # Au
2 12.0107  # C
3 1.00794  # H
4 32.065  # S

Atoms  # charge

32 1 0.0 5.0000005584 5.0000002126 4.9999954749
38 2 0.0 6.4466010899 5.2263024263 7.9202317442
39 3 0.0 6.3312980384 5.4048843382 8.9991322955
40 3 0.0 6.9413119487 6.0934475738 7.4656844607
41 3 0.0 7.0588673676 4.3281094162 7.767662978
42 4 0.0 4.7700936783 4.9881989744 7.2517693766
