(written by ASE)

1064 atoms
4 atom types

0.0      65.440347615850897  xlo xhi
0.0       19.97852824008816  ylo yhi
0.0      42.522127918046763  zlo zhi

Masses

     1      196.96999999999997 # Au
     2      32.059999991752747 # S
     3      12.010999996910238 # C
     4      1.0079999997406976 # H

Atoms # charge

     1   1 3.823541433467526e-08      63.953066988217898      17.481212210077139     0.10000000000000001
     2   1 -3.750519615534909e-08      60.978505732951966      17.481212210077143     0.10000000000000001
     3   1 3.938701485621532e-08      63.953066988217898      19.146089563417821      2.4544921327822116
     4   1 -9.696065699643652e-08      58.003944477686012      17.481212210077139     0.10000000000000001
     5   1 -6.734767643047646e-08      55.029383222420066      17.481212210077139    0.099999999999996439
     6   1 -1.152587753173312e-07      60.978505732951959      19.146089563417817      2.4544921327822116
     7   1 -6.518444156666803e-08      58.003944477686019      19.146089563417824      2.4544921327822116
     8   1 -2.491065240715906e-08      52.054821967154112      17.481212210077139     0.10000000000000001
     9   1 -6.358232710647338e-08      49.080260711888165      17.481212210077139    0.099999999999998229
    10   1 -1.225631048647896e-08      55.029383222420066      19.146089563417821      2.4544921327822116
    11   1 -3.954869562481506e-08      52.054821967154112      19.146089563417817      2.4544921327822098
    12   1 -6.11476142931694e-08      46.105699456622226      17.481212210077139     0.10000000000000177
    13   1 -3.822254900087696e-08      43.131138201356265      17.481212210077139     0.10000000000000001
    14   1 -3.957661941222934e-09      49.080260711888172      19.146089563417817      2.4544921327822133
    15   1 4.825614126780647e-08      46.105699456622212      19.146089563417821      2.4544921327822116
    16   1 -7.351782523208616e-08      40.156576946090311      17.481212210077139     0.10000000000000001
    17   1 -5.543910956695708e-08      37.182015690824372      17.481212210077139     0.10000000000000001
    18   1 3.53189500016185e-08      43.131138201356272      19.146089563417821      2.4544921327822151
    19   1 6.284675473176154e-08      40.156576946090311      19.146089563417821      2.4544921327822116
    20   1 -2.685615957224996e-08      34.207454435558418      17.481212210077139     0.10000000000000001
    21   1 -4.978998909867249e-08      31.232893180292471      17.481212210077139     0.10000000000000001
    22   1 8.809347121305905e-08      37.182015690824379      19.146089563417821      2.4544921327822116
    23   1 5.513415329751886e-08      34.207454435558418      19.146089563417821      2.4544921327822116
    24   1 9.680945409901165e-09      28.258331925026521      17.481212210077139     0.10000000000000001
    25   1 1.153647752692027e-07      25.283770669760575      17.481212210077143     0.10000000000000001
    26   1 9.93038533087659e-08      31.232893180292471      19.146089563417821      2.4544921327822116
    27   1 8.176460790897122e-08      28.258331925026521      19.146089563417821      2.4544921327822133
    28   1 1.252430817666461e-07      22.309209414494617      17.481212210077139    0.099999999999998229
    29   1 9.96781050911083e-08      19.334648159228674      17.481212210077139    0.099999999999998229
    30   1 -1.09302076990031e-08      25.283770669760575      19.146089563417821      2.4544921327822116
    31   1 3.374891804387714e-08      22.309209414494617      19.146089563417821      2.4544921327822116
    32   1 3.980049119445273e-08      16.360086903962721      17.481212210077139     0.10000000000000001
    33   1 1.982304895578602e-08      13.385525648696774      17.481212210077139     0.10000000000000001
    34   1 8.968105116771014e-08      19.334648159228674      19.146089563417817      2.4544921327822116
    35   1 -3.750310257656653e-09      16.360086903962721      19.146089563417821      2.4544921327822116
    36   1 7.884036233238301e-08      10.410964393430822      17.481212210077139     0.10000000000000001
    37   1 3.922066988369666e-08      7.4364031381648745      17.481212210077139     0.10000000000000001
    38   1 -8.096895637646484e-08      13.385525648696772      19.146089563417821      2.4544921327822116
    39   1 4.87094844242239e-08      10.410964393430822      19.146089563417821      2.4544921327822116
    40   1 -7.408647336067109e-08      4.4618418828989244      17.481212210077139     0.10000000000000001
    41   1 -1.84103220272902e-08      1.4872806276329738      17.481212210077139     0.10000000000000001
    42   1 1.743479159741629e-08      7.4364031381648736      19.146089563417821      2.4544921327822116
    43   1 -1.177006518811308e-07      4.4618418828989252      19.146089563417821      2.4544921327822116
    44   1 2.03204027693013e-08      1.4872806276329738      19.146089563417821      2.4544921327822116
    45   1 -2.007441978965629e-08      63.953066988217905      12.486580150055103    0.099999999999998229
    46   1 -9.737134221317334e-08      59.491225105318989      14.983896180066122     0.10000000000000088
    47   1 -8.547232864530852e-08      60.978505732951959      12.486580150055101     0.10000000000000177
    48   1 -1.845408990723552e-08      58.003944477686012      12.486580150055097    0.099999999999998229
    49   1 -2.092575212934988e-08      62.465786360584943      14.983896180066122     0.10000000000000088
    50   1 -4.517073863823801e-08      62.465786360584943        16.6487735334068      2.4544921327822125
    51   1 2.090150645443767e-09      63.953066988217898      14.151457503395779      2.4544921327822133
    52   1 -7.471456400180015e-08      60.978505732951966      14.151457503395783      2.4544921327822133
    53   1 -4.500969332226629e-08      63.958945093075634      15.857442132391117        4.75506412667887
    54   1 -1.437121623266979e-08      53.542102594787096       14.98389618006612     0.10000000000000088
    55   1 3.527155849336605e-08      55.029383222420066      12.486580150055097     0.10000000000000177
    56   1 8.406628717802511e-09      52.054821967154112      12.486580150055097    0.099999999999998229
    57   1 -6.561198234375509e-08      56.516663850053042       14.98389618006612    0.099999999999997327
    58   1 -2.060962674653444e-08      56.516663850053042      16.648773533406803      2.4544921327822125
    59   1 8.041921323309609e-09      58.003944477686012      14.151457503395781      2.4544921327822133
    60   1 9.043803232341996e-10      55.029383222420066      14.151457503395774      2.4544921327822098
    61   1 -8.548228370118538e-08      59.491225105318996      16.648773533406803      2.4544921327822125
    62   1 -8.796843215062161e-08      59.501755094557581      18.352173857868976      4.7538700495688051
    63   1 -8.109733822762172e-08      60.989357753161663      15.856115989546151      4.7538221919947432
    64   1 -1.168364204256339e-08       58.01166449843786      15.852976284765365      4.7554572142636955
    65   1 -7.069423606925751e-08      62.474935990424896      18.354233155311707      4.7544166595121613
    66   1 -4.997475782156369e-08      63.967045157137782      17.557382935159005      7.0639003714582413
    67   1 -3.698837104573055e-08      61.008742942210638      17.558061676241739      7.0590629185554992
    68   1 2.630945971325571e-08      63.976513254003564      19.247577894160131      9.3810482408078215
    69   1 -7.765992608710359e-08      47.592980084255174      14.983896180066122     0.10000000000000266
    70   1 -6.119671778700986e-08      49.080260711888172      12.486580150055101     0.10000000000000177
    71   1 2.538430898292587e-08      46.105699456622212      12.486580150055097     0.10000000000000001
    72   1 -5.759347850194108e-08      50.567541339521149      14.983896180066122    0.099999999999997327
    73   1 -7.408192160673205e-08      50.567541339521149        16.6487735334068      2.4544921327822142
    74   1 -8.773790129232989e-08      52.054821967154112      14.151457503395779      2.4544921327822133
    75   1 -2.173525534641257e-08      49.080260711888165      14.151457503395779      2.4544921327822116
    76   1 -5.787132162891895e-08      53.542102594787089        16.6487735334068      2.4544921327822089
    77   1 -1.54293811008982e-08      53.532751924016978      18.345111455743677       4.779500917251462
    78   1 -2.771412931264206e-08      55.025311903887946      15.848632858299583        4.76789749750768
    79   1 -5.876354787232724e-08      52.044895904702052      15.848330745108758      4.7910850197709784
    80   1 1.305401507029069e-08      56.519200426351048       18.34806347658817      4.7597251756624406
    81   1 -5.900100796037838e-08      58.040734774202988      17.557725104196471      7.0574208078452436
    82   1 1.907429686941187e-08      55.055816713683676      17.554232795996683      7.0746032441532432
    83   1 6.118347525667367e-09      61.035999713383795      19.250841439828648      9.3731706083509181
    84   1 -8.549866472619405e-08       58.09019260477352      19.256711346140928      9.3666805197225056
    85   1 4.143045051301086e-08      41.643857573723288      14.983896180066122     0.10000000000000088
    86   1 1.383173117170539e-07      43.131138201356279      12.486580150055097     0.10000000000000001
    87   1 8.671716281334618e-08      40.156576946090311      12.486580150055101     0.10000000000000177
    88   1 3.026529209367024e-08      44.618418828989235       14.98389618006612    0.099999999999999117
    89   1 1.169618931524605e-07      44.618418828989235      16.648773533406803       2.454492132782216
    90   1 9.71677580176647e-08      46.105699456622226      14.151457503395779      2.4544921327822151
    91   1 2.801988907997349e-08      43.131138201356265      14.151457503395781      2.4544921327822133
    92   1 7.575714141595802e-08      47.592980084255174        16.6487735334068      2.4544921327822107
    93   1 8.23983612287596e-08      47.598754322462085      18.338526957307188      4.7887381115184038
    94   1 8.724745761013591e-08      49.081458890845823      15.845485816247209       4.796890208018338
    95   1 1.704761721926795e-07      46.111653477361649      15.838610033125414      4.7774544081143979
    96   1 1.437104037247533e-08      50.562189735890847      18.345407436102377       4.798016140892563
    97   1 1.031668221381302e-07      52.056016313495483      17.548130254986617      7.1272396397742845
    98   1 1.458542438987145e-07      49.075311134931468      17.535419377239059      7.1454317842572284
    99   1 3.01526850354436e-08      55.127324197641514       19.26694418843207      9.3779432835616827
   100   1 3.464551094015805e-08       52.11856516550133      19.276617197283713      9.4427355928570957
   101   1 -7.212820049562474e-08      35.694735063191395      14.983896180066122     0.10000000000000088
   102   1 -1.116275441699621e-08      37.182015690824372      12.486580150055101     0.10000000000000177
   103   1 -5.164050162313749e-08      34.207454435558397      12.486580150055101     0.10000000000000177
   104   1 -2.821150482321122e-08      38.669296318457349      14.983896180066122     0.10000000000000088
   105   1 4.845251470615014e-08      38.669296318457349      16.648773533406803      2.4544921327822125
   106   1 -2.116021680879238e-08      40.156576946090311      14.151457503395781      2.4544921327822133
   107   1 1.805213910733433e-08      37.182015690824372      14.151457503395779      2.4544921327822133
   108   1 4.329266069073856e-08      41.643857573723288      16.648773533406803      2.4544921327822125
   109   1 5.14319875933103e-08       41.63580084909826      18.343873803045934      4.7559923251767833
   110   1 7.229445366744441e-08      43.127560574361404      15.842354153846228      4.7597077919552131
   111   1 6.202149362317944e-08      40.146089325739389      15.850507310112935      4.7548534245688581
   112   1 4.557718147508993e-08      44.620444061646211      18.336436534201308      4.7670182249377806
   113   1 7.353341462644492e-08      46.087602145818352      17.524851044075003      7.0958595703019505
   114   1 -1.334720943317602e-08      43.095500670286668      17.536908248813194      7.0623627925575754
   115   1 1.610693942614289e-07       49.05291447532597      19.228560377329444      9.4875140243995677
   116   1 1.657021156311472e-08      46.010456178710179      19.212258042448308       9.401097618377273
   117   1 -2.537845700256725e-08      29.745612552659495      14.983896180066122    0.099999999999999117
   118   1 3.062210670798371e-09      31.232893180292471      12.486580150055101     0.10000000000000001
   119   1 -4.00449994518437e-09      28.258331925026521      12.486580150055101     0.10000000000000001
   120   1 -8.195945438299601e-08      32.720173807925434      14.983896180066122     0.10000000000000088
   121   1 -2.329167811399024e-08      32.720173807925434      16.648773533406803      2.4544921327822125
   122   1 -7.917734865057341e-08      34.207454435558418      14.151457503395781      2.4544921327822133
   123   1 -5.535089633770113e-08      31.232893180292471      14.151457503395779      2.4544921327822133
   124   1 4.036807319841851e-08      35.694735063191395      16.648773533406803      2.4544921327822125
   125   1 -8.536420169694137e-09      35.688289732909631      18.354129481696688      4.7559184412056013
   126   1 8.270351983113988e-08      37.172813642237003      15.855507417288448      4.7554211403909568
   127   1 -8.22048827273103e-09      34.204853713813975      15.857719647266284      4.7565571889881069
   128   1 1.266762930897045e-07      38.658494664093602      18.350739699280787      4.7549344278824019
   129   1 1.162258823524109e-07      40.121259283481059       17.55021401568678      7.0588662019479864
   130   1 7.492118128584607e-08      37.157643176110305      17.556449500531809      7.0627795563637834
   131   1 2.057319837406313e-08       43.02894770364589      19.227337092136256      9.3684208368446615
   132   1 1.286704871227007e-07      40.078388335778392      19.241088021862581      9.3713443779914716
   133   1 9.90491717985098e-09      23.796490042127584      14.983896180066122    0.099999999999999117
   134   1 -1.015857037101053e-07      25.283770669760575      12.486580150055097    0.099999999999999117
   135   1 -8.532883577147543e-08      22.309209414494617      12.486580150055101     0.10000000000000001
   136   1 2.982870663317816e-08      26.771051297393548      14.983896180066122     0.10000000000000001
   137   1 5.207055722277615e-08      26.771051297393544      16.648773533406803      2.4544921327822125
   138   1 6.641961833916271e-08      28.258331925026521      14.151457503395779      2.4544921327822133
   139   1 -1.407894197839182e-08      25.283770669760575      14.151457503395783      2.4544921327822133
   140   1 6.597717065043307e-08      29.745612552659498        16.6487735334068      2.4544921327822125
   141   1 1.100281092044145e-07      29.754075382897366        18.3533093106373      4.7556850461228635
   142   1 4.521414177175581e-08      31.238407288736276      15.857202073995142      4.7562955866766385
   143   1 4.61405412367083e-08      28.268992856240583      15.854218655962754      4.7549742341666787
   144   1 1.121793243106378e-08      32.721481856489739      18.355105958857862      4.7565632861010565
   145   1 -3.550447865569017e-08      34.201024764888643      17.558954243416526      7.0663434338981075
   146   1 3.656106751636495e-08      31.246004278047373       17.55870565575815      7.0656916626712469
   147   1 1.79221132943011e-08      37.136689701733509      19.249734649689501      9.3792516340036833
   148   1 -2.319844477367133e-08      34.196942730929415       19.25364877205006      9.3844232759796888
   149   1 4.875369567433618e-08      17.847367531595697      14.983896180066122    0.099999999999999117
   150   1 1.857176965686103e-08      19.334648159228674      12.486580150055101     0.10000000000000001
   151   1 -3.591659202689668e-09      16.360086903962724      12.486580150055097     0.10000000000000001
   152   1 2.417474268337494e-08      20.821928786861644      14.983896180066122    0.099999999999999117
   153   1 2.402508149021432e-08      20.821928786861644        16.6487735334068      2.4544921327822107
   154   1 -2.950519081227482e-08      22.309209414494617      14.151457503395779      2.4544921327822116
   155   1 2.377754494426593e-08      19.334648159228674      14.151457503395779      2.4544921327822116
   156   1 -1.199229811028185e-08      23.796490042127587      16.648773533406803      2.4544921327822125
   157   1 -1.41396587806375e-08       23.80122850746487      18.340673968208762      4.7582431819426638
   158   1 -2.225295498217705e-08      25.292909127331921      15.847616248508796      4.7553050324577564
   159   1 2.801748634484458e-08      22.308715511241136      15.839854673544869      4.7645510417520427
   160   1 2.095335601467324e-08      26.781535017450729      18.348607711964174      4.7546292838170539
   161   1 5.175053299950882e-09      28.286756169831573      17.555335513835402      7.0615071313584208
   162   1 -6.004616791635553e-09      25.320390925709219       17.54600728972887      7.0582456773886486
   163   1 -5.142409835456885e-08      31.256072861343267      19.253190046294861      9.3835398684018099
   164   1 -2.928490314049043e-08      28.315974926919065      19.247539220643628      9.3765053491655497
   165   1 4.595225852090101e-08      11.898245021063794      14.983896180066122     0.10000000000000088
   166   1 -3.252211385786075e-08      13.385525648696774      12.486580150055101     0.10000000000000088
   167   1 5.853753774938408e-08      10.410964393430826      12.486580150055101     0.10000000000000001
   168   1 1.352206010704626e-08      14.872806276329749      14.983896180066122     0.10000000000000001
   169   1 -9.88887805964539e-08      14.872806276329747      16.648773533406803      2.4544921327822125
   170   1 -3.027835836048876e-08      16.360086903962721      14.151457503395779      2.4544921327822133
   171   1 -5.766702279499242e-08      13.385525648696774      14.151457503395779      2.4544921327822133
   172   1 7.541143876889367e-09      17.847367531595697      16.648773533406803      2.4544921327822125
   173   1 -4.747778223519739e-08      17.844594937759791      18.341889192256794      4.7951326890634958
   174   1 2.389063356172949e-08       19.32817159876242      15.840428374247132      4.7857328375206718
   175   1 -7.679509172586058e-08      16.363529947439691      15.847824112669187      4.7986542481929035
   176   1 2.423822988411456e-08      20.816757629088212      18.335817005209798      4.7742844473273562
   177   1 4.73632315398792e-08      22.339915255436189      17.531614260077969      7.0700602747481307
   178   1 -8.508332445533728e-08      19.345096430001401      17.525795906982385      7.1156667113025147
   179   1 1.186032114039101e-07      25.373267131482169      19.236172397250364      9.3679476175348544
   180   1 -3.737392585516364e-09      22.414420077406938      19.221735751565131      9.3737320178945254
   181   1 -5.462944749345944e-08      5.9491225105318968      14.983896180066122    0.099999999999999117
   182   1 2.939525553871669e-08      7.4364031381648736      12.486580150055101     0.10000000000000001
   183   1 -5.674811073830277e-08      4.4618418828989244      12.486580150055101     0.10000000000000001
   184   1 7.855305440666871e-08      8.9236837657978505      14.983896180066122     0.10000000000000001
   185   1 7.836956228326336e-08      8.9236837657978487      16.648773533406803      2.4544921327822125
   186   1 5.896606728676007e-08      10.410964393430822      14.151457503395779      2.4544921327822133
   187   1 -2.614306300174202e-08      7.4364031381648745      14.151457503395781      2.4544921327822133
   188   1 -1.538391486768931e-08      11.898245021063794      16.648773533406803      2.4544921327822125
   189   1 -5.049723370443432e-08      11.904215854922144      18.345725916526845       4.771053258336857
   190   1 -8.376322580341822e-08      13.395710114216676      15.848011832508275      4.7831272002335696
   191   1 9.807400414355016e-09      10.410493407917658      15.850104691155744      4.7618693412429947
   192   1 -1.067611891565623e-07      14.881869681425201      18.346105169113052       4.793738902810313
   193   1 -1.173533260680551e-07      16.365263951478674       17.54229737076588      7.1491746097934561
   194   1 -8.207336003960425e-08      13.375464479475433      17.550623091008102      7.1060578815932018
   195   1 -3.132276330062439e-08      19.413660289611947      19.211038766462021      9.4290273946856118
   196   1 -1.762686140461059e-07      16.352863899299738      19.251688178675483      9.4944003086072577
   197   1 3.553125868180351e-08                       0      14.983896180066122     0.10000000000000001
   198   1 1.364624355876254e-08      1.4872806276329746      12.486580150055101     0.10000000000000001
   199   1 -7.525222873137893e-08      2.9745612552659484      14.983896180066122     0.10000000000000001
   200   1 -6.294479548262649e-08      2.9745612552659475      16.648773533406803      2.4544921327822125
   201   1 -1.435064989454074e-07      4.4618418828989244      14.151457503395779      2.4544921327822133
   202   1 1.289697945661139e-08      1.4872806276329738      14.151457503395781      2.4544921327822133
   203   1 -8.304814349754941e-08      5.9491225105318977      16.648773533406803      2.4544921327822125
   204   1 -1.095569553020634e-07      5.9384732954627255      18.353190463431151      4.7538093417909932
   205   1 -4.160288051471145e-08      7.4267049182135914      15.854450528844065      4.7542838093585038
   206   1 -8.968902918959909e-08      4.4523652697021143      15.856852957248309      4.7542717314498448
   207   1 2.398894866258161e-08      8.9174483263877509      18.349748612946453      4.7565118298351994
   208   1 -2.384305352806648e-08      10.378767792521085      17.556082081979401      7.0650079156127639
   209   1 -1.161685680272501e-07      7.4008117187382085      17.558356835829365      7.0571999726248631
   210   1 -9.682736037963657e-08      13.302205922961303      19.276160022904747      9.4117994447369426
   211   1 -1.589370316173316e-08      10.314456633716077      19.262685794380459      9.3702318469581574
   212   1 8.716255132934503e-08                       0      16.648773533406803      2.4544921327822125
   213   1 3.780230273947582e-08   0.0017502424537699825      18.354983786008066      4.7555441156898723
   214   1 3.590895476801581e-09      1.4845957580079028      15.857674828682617       4.755424127628916
   215   1 -8.081181833083373e-08      2.9680032463755857      18.354682976056857      4.7549556989868957
   216   1 -8.291945671409784e-08       4.437175273875182      17.558154408923937      7.0609268596644839
   217   1 -1.213867931691703e-08      1.4808587834832696      17.557389384668326      7.0648010857852706
   218   1 -8.45476682267629e-08      7.3596228110751261      19.254570959050429      9.3683792491426683
   219   1 -1.399413453000153e-08        4.41674378956903      19.249815824478869      9.3764196092879715
   220   1 3.376706432436233e-08      1.4768258047127349      19.247289733803363      9.3823167488712222
   221   1 -1.058185033001036e-07      62.465786360584943      9.9892641200440782    0.099999999999998229
   222   1 -9.757092156101321e-08      63.953066988217898      7.4919480900330608     0.10000000000000221
   223   1 -4.553731601519839e-08      60.978505732951959      7.4919480900330582    0.099999999999995107
   224   1 -4.850282291080088e-08      63.953066988217905      9.1568254433737444      2.4544921327822107
   225   1 7.097787243365294e-08      56.516663850053042      9.9892641200440764     0.10000000000000177
   226   1 9.470368685093877e-08      58.003944477686012      7.4919480900330599     0.10000000000000221
   227   1 9.37214072495307e-09      55.029383222420066      7.4919480900330599    0.099999999999998673
   228   1 2.051685000711845e-09      59.491225105318982      9.9892641200440764    0.099999999999998229
   229   1 -1.143488757762018e-08      59.491225105318989      11.654141473384758      2.4544921327822133
   230   1 -7.752799594234333e-08      60.978505732951959      9.1568254433737408      2.4544921327822142
   231   1 6.362834443877918e-08      58.003944477686012      9.1568254433737373      2.4544921327822107
   232   1 -8.8051664214224e-08      62.465786360584943      11.654141473384763      2.4544921327822133
   233   1 -5.803936180097391e-08      62.474963037386594      13.359590906112093       4.754435365725123
   234   1 -3.15971024423059e-08      63.958962910669804      10.862848152502279      4.7551152903233547
   235   1 -4.504416152139451e-08      60.989353153751715      10.861470808249214      4.7538128743710582
   236   1 -6.598626687160519e-08      63.967037806502113      12.562819204875767      7.0639357257804329
   237   1 -6.103693351786066e-08      50.567541339521149      9.9892641200440782     0.10000000000000177
   238   1 -9.884477450254614e-08      52.054821967154119      7.4919480900330608     0.10000000000000221
   239   1 -8.73530234361819e-08      49.080260711888165      7.4919480900330599    0.099999999999998673
   240   1 9.53419149359036e-09      53.542102594787096      9.9892641200440782    0.099999999999998229
   241   1 -1.222508542227801e-08      53.542102594787096      11.654141473384758      2.4544921327822133
   242   1 4.202087063986254e-08      55.029383222420066      9.1568254433737408      2.4544921327822142
   243   1 -4.532453809404785e-08      52.054821967154112      9.1568254433737408      2.4544921327822107
   244   1 6.713751273066532e-08      56.516663850053042      11.654141473384758      2.4544921327822098
   245   1 -9.224124498073694e-09      56.519172295656638      13.353371516309236      4.7597519579931094
   246   1 -2.519359197823701e-08      58.011661540467948      10.858333320406551      4.7554735475682035
   247   1 -2.339658539563666e-08      55.025344736464916      10.853999628761931      4.7678898230390789
   248   1 -3.073502288005597e-08      59.501726549035148      13.357507695563157      4.7538953148556917
   249   1 -9.606666558515525e-08      59.526360286884994      15.060839351854327       7.057149679990574
   250   1 -4.78548129222503e-08      61.008739271400351      12.563496019740031      7.0590388350349542
   251   1 -1.43855497595699e-07      58.040736450896624      12.563105224660866      7.0573884365532145
   252   1 -5.85641180689267e-08      62.488666191586113      15.060428763492405      7.0615802136300774
   253   1 1.716240506915295e-08      62.506487133829687      16.751663304764715      9.3775273162593624
   254   1 -4.694028409024664e-09      63.976522092292335      14.252956380295819      9.3810237532503642
   255   1 -8.029071325507675e-08      61.035893507847597      14.256180547746595      9.3731773162909153
   256   1 8.561521782149417e-08      44.618418828989235      9.9892641200440782     0.10000000000000001
   257   1 3.662511821600489e-10      46.105699456622219      7.4919480900330608    0.099999999999998673
   258   1 4.051078084099657e-08      43.131138201356272      7.4919480900330599     0.10000000000000044
   259   1 -3.547977093371069e-08      47.592980084255174      9.9892641200440782    0.099999999999998229
   260   1 2.855524960758415e-08      47.592980084255174      11.654141473384758      2.4544921327822151
   261   1 4.86510926510364e-09      49.080260711888172      9.1568254433737408      2.4544921327822142
   262   1 1.61107147032824e-08      46.105699456622212      9.1568254433737408      2.4544921327822125
   263   1 -5.581494079767713e-08      50.567541339521149      11.654141473384758      2.4544921327822098
   264   1 -1.923793081261282e-08      50.562248822895214       13.35085248686673       4.797966455603758
   265   1 -4.248965102503222e-09      52.044982285070112      10.853694393035903      4.7910698663462279
   266   1 3.721310652248649e-08      49.081510815812941       10.85086904047723      4.7968180105500551
   267   1 -7.723087883191454e-08      53.532754723458567      13.350502050565153      4.7794923817377004
   268   1 4.091712286786314e-08      53.556188671919493      15.053993082566633      7.0976102602931963
   269   1 1.73220770349064e-08      55.055753072097367      12.559613804903343       7.074600178133724
   270   1 -2.258922227223181e-09      52.056022221050597      12.553481027746658      7.1272364873049145
   271   1 -9.2928759177352e-08      56.550801305631353      15.059062304248908      7.0620625551708134
   272   1 -5.018917603998724e-08      56.612030826511599      16.763233260526967       9.367923684812375
   273   1 -1.407922296681879e-07      58.090138820955438      14.262082722987197      9.3667064579407064
   274   1 5.022784427093085e-08      55.127197136757303      14.272251054198374      9.3778924767697038
   275   1 -1.009758720232207e-07      59.564250436032971      16.756017558986905      9.3689767234453587
   276   1 4.78421956599806e-08      38.669296318457349      9.9892641200440817     0.10000000000000177
   277   1 1.769865907823298e-08      40.156576946090318      7.4919480900330599     0.10000000000000044
   278   1 -3.472132803494787e-09      37.182015690824372      7.4919480900330608     0.10000000000000221
   279   1 1.129937278153414e-07      41.643857573723288      9.9892641200440764     0.10000000000000001
   280   1 -7.561766973696038e-08      41.643857573723288      11.654141473384758      2.4544921327822133
   281   1 -8.21600065299341e-08      43.131138201356279      9.1568254433737408      2.4544921327822125