# LAMMPS data file written by OVITO Basic 3.8.0

11 atoms
4 atom types

2.83435 14.5809782345 xlo xhi
1.21305 11.3859284599 ylo yhi
-7.33442 14.2566617909 zlo zhi
-5.8733141173 0.0 0.0 xy xz yz

Masses

1 196.96655  # Au
2 32.065  # S
3 12.0107  # C
4 1.00794  # H

Atoms  # charge

1 1 0.0 4.9999998022 5.0000022402 4.9999995631
2 3 0.0 8.2163556341 4.8822211951 5.808631406
3 3 0.0 3.218876154 7.6910942067 5.804873333
4 4 0.0 9.194041187 4.3979458575 5.6810099487
5 4 0.0 8.2191852753 5.8451612205 5.2815894565
6 4 0.0 8.0022275928 5.0308750371 6.8749695165
7 4 0.0 4.0547001339 8.1945722192 5.3021102283
8 4 0.0 2.3018322837 8.2773331824 5.6552685483
9 4 0.0 3.4271819517 7.5789653045 6.8767604477
10 2 0.0 6.9566216557 3.7537410512 5.1212514422
11 2 0.0 2.9228484928 6.0342968417 5.0981386593
