# LAMMPS data file written by OVITO Basic 3.8.0

11 atoms
4 atom types

2.83562 2.83562 xlo xhi
1.2408 1.2408 ylo yhi
-6.84052 -6.84052 zlo zhi

Masses

1 196.96655  # Au
2 32.065  # S
3 12.0107  # C
4 1.00794  # H

Atoms  # charge

1 1 0.0 4.999999 5.0 4.999995
2 3 0.0 7.961793 3.936204 6.05613
3 3 0.0 2.011246 5.953949 6.011977
4 4 0.0 7.678702 3.906125 7.116405
5 4 0.0 8.213927 4.957485 5.755833
6 4 0.0 8.816975 3.27139 5.872746
7 4 0.0 1.78543 4.947581 5.645439
8 4 0.0 2.276474 5.924915 7.076761
9 4 0.0 1.144496 6.61003 5.852985
10 2 0.0 6.572337 3.304282 5.061693
11 2 0.0 3.401086 6.671179 5.075318
