LAMMPS data file via write_data, version 29 Aug 2024, timestep = 0, units = real

961 atoms
4 atom types

-5.767304328713719e-08 34.60382597228231 xlo xhi
-6.65950941336272e-08 39.95705648017632 ylo yhi
-7.063476398346639e-06 42.38085839007984 zlo zhi

Atom Type Labels

1 Au
2 S
3 C
4 H

Masses

1 196.97
2 32.06
3 12.011
4 1.008

Atoms # charge

1 1 0 33.161999890103885 37.4597404501653 0 0 0 0
2 1 0 30.27834772574702 37.4597404501653 0 0 0 0
3 1 0 33.16199989010388 39.124617803505984 2.3544921327822124 0 0 0
4 1 0 27.394695561390165 37.4597404501653 0 0 0 0
5 1 0 24.511043397033305 37.4597404501653 0 0 0 0
6 1 0 30.278347725747025 39.124617803505984 2.354492132782216 0 0 0
7 1 0 27.39469556139016 39.124617803505984 2.3544921327822124 0 0 0
8 1 0 21.627391232676445 37.4597404501653 0 0 0 0
9 1 0 18.743739068319584 37.4597404501653 0 0 0 0
10 1 0 24.511043397033305 39.124617803505984 2.3544921327822124 0 0 0
11 1 0 21.627391232676445 39.124617803505984 2.3544921327822124 0 0 0
12 1 0 15.860086903962724 37.4597404501653 0 0 0 0
13 1 0 12.976434739605867 37.459740450165306 0 0 0 0
14 1 0 18.743739068319584 39.124617803505984 2.3544921327822124 0 0 0
15 1 0 15.860086903962724 39.124617803505984 2.3544921327822124 0 0 0
16 1 0 10.092782575249005 37.4597404501653 0 0 0 0
17 1 0 7.209130410892148 37.4597404501653 0 0 0 0
18 1 0 12.976434739605866 39.124617803505984 2.3544921327822124 0 0 0
19 1 0 10.09278257524901 39.124617803505984 2.3544921327822124 0 0 0
20 1 0 4.325478246535287 37.4597404501653 0 0 0 0
21 1 0 1.4418260821784301 37.4597404501653 0 0 0 0
22 1 0 7.209130410892145 39.124617803505984 2.3544921327822124 0 0 0
23 1 0 4.325478246535289 39.124617803505984 2.3544921327822124 0 0 0
24 1 0 1.4418260821784283 39.124617803505984 2.3544921327822124 0 0 0
25 1 0 33.16199989010388 32.46510839014326 0 0 0 0
26 1 0 28.836521643568595 34.96242442015428 0 0 0 0
27 1 0 30.278347725747025 32.465108390143264 0 0 0 0
28 1 0 27.394695561390165 32.46510839014326 0 0 0 0
29 1 0 31.72017380792545 34.96242442015428 0 0 0 0
30 1 0 31.720173807925455 36.62730177349496 2.354492132782216 0 0 0
31 1 0 33.161999890103885 34.12998574348394 2.354492132782214 0 0 0
32 1 0 30.27834772574702 34.12998574348394 2.354492132782214 0 0 0
33 1 0 33.16199989010388 35.79486309682462 4.7089842655644265 0 0 0
34 1 0 23.069217314854875 34.96242442015428 0 0 0 0
35 1 0 24.511043397033305 32.465108390143264 1.7763568394002505e-15 0 0 0
36 1 0 21.627391232676445 32.46510839014326 1.7763568394002505e-15 0 0 0
37 1 0 25.952869479211735 34.96242442015428 0 0 0 0
38 1 0 25.952869479211735 36.62730177349496 2.3544921327822124 0 0 0
39 1 0 27.394695561390165 34.12998574348394 2.354492132782214 0 0 0
40 1 0 24.511043397033305 34.12998574348394 2.354492132782214 0 0 0
41 1 0 28.83652164356859 36.62730177349496 2.3544921327822124 0 0 0
42 1 0 28.836521643568595 38.29217912683564 4.708984265564428 0 0 0
43 1 0 30.278347725747025 35.79486309682462 4.70898426556443 0 0 0
44 1 0 27.39469556139016 35.79486309682462 4.7089842655644265 0 0 0
45 1 0 31.720173807925452 38.29217912683564 4.708984265564425 0 0 0
46 1 0 33.16199989010388 37.4597404501653 7.063476398346642 0 0 0
47 1 0 30.27834772574702 37.4597404501653 7.063476398346639 0 0 0
48 1 0 33.16199989010388 39.124617803505984 9.417968531128851 0 0 0
49 1 0 17.301912986141154 34.96242442015428 0 0 0 0
50 1 0 18.743739068319584 32.465108390143264 0 0 0 0
51 1 0 15.860086903962728 32.465108390143264 0 0 0 0
52 1 0 20.185565150498014 34.96242442015428 0 0 0 0
53 1 0 20.185565150498014 36.62730177349496 2.3544921327822124 0 0 0
54 1 0 21.627391232676445 34.12998574348394 2.354492132782214 0 0 0
55 1 0 18.743739068319584 34.12998574348394 2.354492132782214 0 0 0
56 1 0 23.069217314854875 36.62730177349496 2.3544921327822124 0 0 0
57 1 0 23.069217314854875 38.29217912683564 4.708984265564425 0 0 0
58 1 0 24.511043397033305 35.79486309682462 4.7089842655644265 0 0 0
59 1 0 21.627391232676445 35.79486309682462 4.7089842655644265 0 0 0
60 1 0 25.95286947921173 38.29217912683564 4.708984265564425 0 0 0
61 1 0 27.394695561390165 37.4597404501653 7.063476398346642 0 0 0
62 1 0 24.5110433970333 37.4597404501653 7.063476398346639 0 0 0
63 1 0 30.27834772574702 39.124617803505984 9.417968531128855 0 0 0
64 1 0 27.39469556139016 39.124617803505984 9.417968531128851 0 0 0
65 1 0 11.534608657427434 34.96242442015428 -3.552713678800501e-15 0 0 0
66 1 0 12.976434739605864 32.46510839014326 -1.7763568394002505e-15 0 0 0
67 1 0 10.092782575249007 32.465108390143264 0 0 0 0
68 1 0 14.418260821784298 34.96242442015428 0 0 0 0
69 1 0 14.418260821784294 36.62730177349496 2.3544921327822124 0 0 0
70 1 0 15.860086903962724 34.12998574348394 2.354492132782214 0 0 0
71 1 0 12.976434739605867 34.12998574348394 2.354492132782214 0 0 0
72 1 0 17.301912986141154 36.62730177349496 2.3544921327822124 0 0 0
73 1 0 17.301912986141154 38.29217912683564 4.708984265564425 0 0 0
74 1 0 18.743739068319584 35.79486309682462 4.7089842655644265 0 0 0
75 1 0 15.860086903962724 35.79486309682462 4.7089842655644265 0 0 0
76 1 0 20.185565150498014 38.29217912683564 4.708984265564425 0 0 0
77 1 0 21.627391232676445 37.4597404501653 7.063476398346639 0 0 0
78 1 0 18.743739068319584 37.4597404501653 7.063476398346639 0 0 0
79 1 0 24.511043397033305 39.124617803505984 9.417968531128855 0 0 0
80 1 0 21.62739123267644 39.124617803505984 9.417968531128851 0 0 0
81 1 0 5.767304328713718 34.96242442015428 0 0 0 0
82 1 0 7.209130410892147 32.46510839014326 0 0 0 0
83 1 0 4.3254782465352895 32.46510839014326 0 0 0 0
84 1 0 8.650956493070577 34.96242442015428 0 0 0 0
85 1 0 8.650956493070577 36.62730177349496 2.3544921327822124 0 0 0
86 1 0 10.092782575249005 34.12998574348394 2.354492132782214 0 0 0
87 1 0 7.209130410892148 34.12998574348394 2.354492132782214 0 0 0
88 1 0 11.53460865742744 36.62730177349496 2.3544921327822124 0 0 0
89 1 0 11.534608657427437 38.29217912683564 4.708984265564425 0 0 0
90 1 0 12.976434739605866 35.79486309682462 4.7089842655644265 0 0 0
91 1 0 10.09278257524901 35.79486309682463 4.7089842655644265 0 0 0
92 1 0 14.418260821784296 38.29217912683564 4.708984265564425 0 0 0
93 1 0 15.860086903962726 37.4597404501653 7.063476398346639 0 0 0
94 1 0 12.976434739605867 37.4597404501653 7.063476398346639 0 0 0
95 1 0 18.743739068319584 39.124617803505984 9.417968531128851 0 0 0
96 1 0 15.860086903962728 39.124617803505984 9.417968531128851 0 0 0
97 1 0 0 34.96242442015428 0 0 0 0
98 1 0 1.4418260821784283 32.465108390143264 1.7763568394002505e-15 0 0 0
99 1 0 2.8836521643568584 34.96242442015428 0 0 0 0
100 1 0 2.8836521643568584 36.62730177349496 2.3544921327822124 0 0 0
101 1 0 4.325478246535287 34.12998574348394 2.354492132782214 0 0 0
102 1 0 1.4418260821784301 34.12998574348394 2.354492132782214 0 0 0
103 1 0 5.767304328713717 36.62730177349496 2.3544921327822124 0 0 0
104 1 0 5.767304328713717 38.292179126835634 4.708984265564425 0 0 0
105 1 0 7.209130410892145 35.79486309682462 4.7089842655644265 0 0 0
106 1 0 4.325478246535289 35.79486309682462 4.7089842655644265 0 0 0
107 1 0 8.650956493070579 38.29217912683564 4.708984265564425 0 0 0
108 1 0 10.092782575249005 37.4597404501653 7.063476398346639 0 0 0
109 1 0 7.209130410892151 37.4597404501653 7.063476398346639 0 0 0
110 1 0 12.976434739605866 39.124617803505984 9.417968531128855 0 0 0
111 1 0 10.092782575249007 39.124617803505984 9.417968531128855 0 0 0
112 1 0 0 36.62730177349496 2.3544921327822124 0 0 0
113 1 0 0 38.29217912683564 4.708984265564425 0 0 0
114 1 0 1.4418260821784283 35.79486309682462 4.7089842655644265 0 0 0
115 1 0 2.8836521643568584 38.29217912683564 4.708984265564425 0 0 0
116 1 0 4.325478246535287 37.4597404501653 7.063476398346639 0 0 0
117 1 0 1.4418260821784301 37.4597404501653 7.063476398346639 0 0 0
118 1 0 7.209130410892147 39.124617803505984 9.417968531128851 0 0 0
119 1 0 4.325478246535292 39.124617803505984 9.417968531128851 0 0 0
120 1 0 1.4418260821784283 39.124617803505984 9.417968531128851 0 0 0
121 1 0 31.720173807925452 29.967792360132243 0 0 0 0
122 1 0 33.161999890103885 27.47047633012122 0 0 0 0
123 1 0 30.27834772574702 27.47047633012122 1.7763568394002505e-15 0 0 0
124 1 0 33.16199989010388 29.135353683461897 2.354492132782214 0 0 0
125 1 0 25.952869479211735 29.967792360132243 0 0 0 0
126 1 0 27.394695561390165 27.47047633012122 1.7763568394002505e-15 0 0 0
127 1 0 24.511043397033305 27.470476330121215 1.7763568394002505e-15 0 0 0
128 1 0 28.836521643568595 29.967792360132243 0 0 0 0
129 1 0 28.836521643568595 31.63266971347292 2.354492132782214 0 0 0
130 1 0 30.278347725747025 29.1353536834619 2.354492132782214 0 0 0
131 1 0 27.394695561390165 29.135353683461897 2.354492132782214 0 0 0
132 1 0 31.72017380792545 31.63266971347292 2.354492132782214 0 0 0
133 1 0 31.720173807925455 33.29754706681361 4.70898426556443 0 0 0
134 1 0 33.161999890103885 30.80023103680258 4.708984265564428 0 0 0
135 1 0 30.27834772574702 30.80023103680258 4.708984265564428 0 0 0
136 1 0 33.16199989010388 32.46510839014326 7.063476398346641 0 0 0
137 1 0 20.185565150498014 29.967792360132243 0 0 0 0
138 1 0 21.627391232676445 27.47047633012122 0 0 0 0
139 1 0 18.743739068319588 27.47047633012122 1.7763568394002505e-15 0 0 0
140 1 0 23.069217314854875 29.967792360132243 1.7763568394002505e-15 0 0 0
141 1 0 23.069217314854875 31.632669713472925 2.354492132782214 0 0 0
142 1 0 24.511043397033305 29.1353536834619 2.354492132782216 0 0 0
143 1 0 21.627391232676445 29.135353683461897 2.354492132782216 0 0 0
144 1 0 25.952869479211735 31.63266971347292 2.354492132782214 0 0 0
145 1 0 25.952869479211735 33.29754706681361 4.7089842655644265 0 0 0
146 1 0 27.394695561390165 30.80023103680258 4.708984265564428 0 0 0
147 1 0 24.511043397033305 30.80023103680258 4.708984265564428 0 0 0
148 1 0 28.83652164356859 33.29754706681361 4.7089842655644265 0 0 0
149 1 0 28.836521643568595 34.962424420154285 7.063476398346642 0 0 0
150 1 0 30.278347725747025 32.46510839014326 7.063476398346644 0 0 0
151 1 0 27.39469556139016 32.46510839014326 7.063476398346641 0 0 0
152 1 0 31.720173807925452 34.962424420154285 7.063476398346639 0 0 0
153 1 0 31.720173807925452 36.62730177349496 9.417968531128855 0 0 0
154 1 0 33.16199989010388 34.129985743483935 9.417968531128857 0 0 0
155 1 0 30.27834772574702 34.12998574348394 9.417968531128853 0 0 0
156 1 0 14.418260821784294 29.967792360132243 -1.7763568394002505e-15 0 0 0
157 1 0 15.860086903962724 27.470476330121215 0 0 0 0
158 1 0 12.976434739605866 27.47047633012122 0 0 0 0
159 1 0 17.301912986141158 29.967792360132243 0 0 0 0
160 1 0 17.301912986141154 31.632669713472925 2.354492132782214 0 0 0
161 1 0 18.743739068319584 29.1353536834619 2.354492132782214 0 0 0
162 1 0 15.860086903962728 29.1353536834619 2.354492132782214 0 0 0
163 1 0 20.185565150498014 31.63266971347292 2.354492132782214 0 0 0
164 1 0 20.185565150498014 33.29754706681361 4.7089842655644265 0 0 0
165 1 0 21.627391232676445 30.80023103680258 4.708984265564428 0 0 0
166 1 0 18.743739068319584 30.80023103680258 4.708984265564428 0 0 0
167 1 0 23.069217314854875 33.29754706681361 4.7089842655644265 0 0 0
168 1 0 23.069217314854875 34.962424420154285 7.063476398346639 0 0 0
169 1 0 24.511043397033305 32.46510839014326 7.063476398346641 0 0 0
170 1 0 21.627391232676445 32.46510839014326 7.063476398346641 0 0 0
171 1 0 25.95286947921173 34.962424420154285 7.063476398346639 0 0 0
172 1 0 25.952869479211735 36.62730177349496 9.417968531128855 0 0 0
173 1 0 27.394695561390165 34.12998574348394 9.417968531128857 0 0 0
174 1 0 24.5110433970333 34.12998574348394 9.417968531128853 0 0 0
175 1 0 28.83652164356859 36.62730177349496 9.417968531128851 0 0 0
176 1 0 8.650956493070577 29.967792360132243 0 0 0 0
177 1 0 10.092782575249007 27.47047633012122 0 0 0 0
178 1 0 7.209130410892148 27.47047633012122 1.7763568394002505e-15 0 0 0
179 1 0 11.534608657427437 29.967792360132243 -1.7763568394002505e-15 0 0 0
180 1 0 11.534608657427434 31.63266971347292 2.3544921327822106 0 0 0
181 1 0 12.976434739605864 29.135353683461897 2.3544921327822124 0 0 0
182 1 0 10.092782575249007 29.1353536834619 2.354492132782214 0 0 0
183 1 0 14.418260821784298 31.632669713472925 2.354492132782214 0 0 0
184 1 0 14.418260821784294 33.29754706681361 4.7089842655644265 0 0 0
185 1 0 15.860086903962724 30.80023103680258 4.708984265564428 0 0 0
186 1 0 12.976434739605867 30.80023103680258 4.708984265564428 0 0 0
187 1 0 17.301912986141154 33.29754706681361 4.7089842655644265 0 0 0
188 1 0 17.301912986141154 34.962424420154285 7.063476398346639 0 0 0
189 1 0 18.743739068319584 32.46510839014326 7.063476398346641 0 0 0
190 1 0 15.860086903962724 32.46510839014326 7.063476398346641 0 0 0
191 1 0 20.185565150498014 34.962424420154285 7.063476398346639 0 0 0
192 1 0 20.185565150498014 36.62730177349496 9.417968531128851 0 0 0
193 1 0 21.627391232676445 34.12998574348394 9.417968531128853 0 0 0
194 1 0 18.743739068319584 34.12998574348394 9.417968531128853 0 0 0
195 1 0 23.06921731485487 36.62730177349496 9.417968531128851 0 0 0
196 1 0 2.8836521643568593 29.967792360132243 0 0 0 0
197 1 0 4.325478246535289 27.47047633012122 1.7763568394002505e-15 0 0 0
198 1 0 1.441826082178431 27.47047633012122 0 0 0 0
199 1 0 5.767304328713719 29.967792360132243 0 0 0 0
200 1 0 5.767304328713718 31.63266971347292 2.354492132782214 0 0 0
201 1 0 7.209130410892147 29.135353683461897 2.354492132782214 0 0 0
202 1 0 4.3254782465352895 29.135353683461897 2.354492132782214 0 0 0
203 1 0 8.650956493070577 31.63266971347292 2.354492132782214 0 0 0
204 1 0 8.650956493070577 33.29754706681361 4.7089842655644265 0 0 0
205 1 0 10.092782575249005 30.80023103680258 4.708984265564428 0 0 0
206 1 0 7.209130410892148 30.80023103680258 4.708984265564428 0 0 0
207 1 0 11.53460865742744 33.29754706681361 4.7089842655644265 0 0 0
208 1 0 11.534608657427437 34.962424420154285 7.063476398346639 0 0 0
209 1 0 12.976434739605866 32.46510839014326 7.063476398346641 0 0 0
210 1 0 10.09278257524901 32.46510839014326 7.063476398346641 0 0 0
211 1 0 14.418260821784296 34.962424420154285 7.063476398346639 0 0 0
212 1 0 14.418260821784298 36.62730177349496 9.417968531128851 0 0 0
213 1 0 15.860086903962726 34.12998574348394 9.417968531128853 0 0 0
214 1 0 12.976434739605867 34.12998574348394 9.417968531128853 0 0 0
215 1 0 17.301912986141154 36.62730177349496 9.417968531128851 0 0 0
216 1 0 0 29.967792360132243 0 0 0 0
217 1 0 0 31.63266971347292 2.354492132782214 0 0 0
218 1 0 1.4418260821784283 29.1353536834619 2.354492132782216 0 0 0
219 1 0 2.8836521643568584 31.632669713472925 2.354492132782214 0 0 0
220 1 0 2.8836521643568584 33.29754706681361 4.7089842655644265 0 0 0
221 1 0 4.325478246535287 30.80023103680258 4.708984265564428 0 0 0
222 1 0 1.4418260821784301 30.80023103680258 4.708984265564428 0 0 0
223 1 0 5.767304328713717 33.29754706681361 4.7089842655644265 0 0 0
224 1 0 5.767304328713717 34.96242442015428 7.063476398346639 0 0 0
225 1 0 7.209130410892145 32.46510839014326 7.063476398346641 0 0 0
226 1 0 4.325478246535289 32.46510839014326 7.063476398346641 0 0 0
227 1 0 8.650956493070579 34.962424420154285 7.063476398346639 0 0 0
228 1 0 8.650956493070577 36.62730177349496 9.417968531128851 0 0 0
229 1 0 10.092782575249005 34.12998574348394 9.417968531128853 0 0 0
230 1 0 7.209130410892151 34.12998574348394 9.417968531128853 0 0 0
231 1 0 11.534608657427436 36.62730177349496 9.417968531128855 0 0 0
232 1 0 0 33.29754706681361 4.7089842655644265 0 0 0
233 1 0 0 34.962424420154285 7.063476398346639 0 0 0
234 1 0 1.4418260821784283 32.46510839014326 7.063476398346641 0 0 0
235 1 0 2.8836521643568584 34.962424420154285 7.063476398346639 0 0 0
236 1 0 2.8836521643568584 36.62730177349496 9.417968531128851 0 0 0
237 1 0 4.325478246535287 34.129985743483935 9.417968531128853 0 0 0
238 1 0 1.4418260821784301 34.12998574348394 9.417968531128853 0 0 0
239 1 0 5.7673043287137205 36.62730177349496 9.417968531128851 0 0 0
240 1 0 0 36.62730177349496 9.417968531128851 0 0 0
241 1 0 33.161999890103885 22.47584427009918 0 0 0 0
242 1 0 28.83652164356859 24.9731603001102 1.7763568394002505e-15 0 0 0
243 1 0 30.278347725747025 22.47584427009918 0 0 0 0
244 1 0 27.39469556139016 22.47584427009918 1.7763568394002505e-15 0 0 0
245 1 0 31.720173807925455 24.973160300110198 0 0 0 0
246 1 0 31.720173807925452 26.63803765345088 2.354492132782214 0 0 0
247 1 0 33.161999890103885 24.14072162343986 2.3544921327822124 0 0 0
248 1 0 30.27834772574702 24.14072162343986 2.354492132782214 0 0 0
249 1 0 33.16199989010388 25.805598976780537 4.7089842655644265 0 0 0
250 1 0 23.069217314854875 24.9731603001102 0 0 0 0
251 1 0 24.511043397033305 22.47584427009918 0 0 0 0
252 1 0 21.627391232676448 22.47584427009918 0 0 0 0
253 1 0 25.952869479211735 24.9731603001102 1.7763568394002505e-15 0 0 0
254 1 0 25.952869479211735 26.63803765345088 2.354492132782214 0 0 0
255 1 0 27.394695561390165 24.14072162343986 2.354492132782214 0 0 0
256 1 0 24.511043397033305 24.14072162343986 2.354492132782214 0 0 0
257 1 0 28.836521643568595 26.63803765345088 2.354492132782214 0 0 0
258 1 0 28.836521643568595 28.302915006791558 4.708984265564428 0 0 0
259 1 0 30.278347725747025 25.80559897678054 4.7089842655644265 0 0 0
260 1 0 27.394695561390165 25.805598976780537 4.7089842655644265 0 0 0
261 1 0 31.72017380792545 28.302915006791558 4.708984265564428 0 0 0
262 1 0 31.720173807925455 29.96779236013224 7.063476398346644 0 0 0
263 1 0 33.161999890103885 27.470476330121222 7.063476398346641 0 0 0
264 1 0 30.27834772574702 27.47047633012122 7.063476398346641 0 0 0
265 1 0 33.16199989010388 29.1353536834619 9.417968531128853 0 0 0
266 1 0 17.301912986141154 24.973160300110198 0 0 0 0
267 1 0 18.743739068319584 22.47584427009918 0 0 0 0
268 1 0 15.860086903962726 22.47584427009918 0 0 0 0
269 1 0 20.185565150498018 24.9731603001102 0 0 0 0
270 1 0 20.185565150498014 26.63803765345088 2.354492132782214 0 0 0
271 1 0 21.627391232676445 24.14072162343986 2.3544921327822124 0 0 0
272 1 0 18.743739068319588 24.14072162343986 2.354492132782214 0 0 0
273 1 0 23.069217314854875 26.63803765345088 2.354492132782216 0 0 0
274 1 0 23.069217314854875 28.30291500679156 4.708984265564428 0 0 0
275 1 0 24.511043397033305 25.80559897678054 4.708984265564428 0 0 0
276 1 0 21.627391232676445 25.805598976780537 4.708984265564428 0 0 0
277 1 0 25.952869479211735 28.302915006791558 4.708984265564428 0 0 0
278 1 0 25.952869479211735 29.96779236013224 7.063476398346641 0 0 0
279 1 0 27.394695561390165 27.470476330121222 7.063476398346641 0 0 0
280 1 0 24.511043397033305 27.470476330121222 7.063476398346641 0 0 0
281 1 0 28.83652164356859 29.96779236013224 7.063476398346641 0 0 0
282 1 0 28.836521643568595 31.63266971347292 9.417968531128857 0 0 0
283 1 0 30.278347725747025 29.1353536834619 9.417968531128857 0 0 0
284 1 0 27.39469556139016 29.1353536834619 9.417968531128853 0 0 0
285 1 0 31.720173807925452 31.63266971347292 9.417968531128853 0 0 0
286 1 0 11.534608657427436 24.9731603001102 0 0 0 0
287 1 0 12.976434739605866 22.47584427009918 0 0 0 0
288 1 0 10.092782575249007 22.47584427009918 0 0 0 0
289 1 0 14.418260821784296 24.9731603001102 0 0 0 0
290 1 0 14.418260821784294 26.63803765345088 2.3544921327822124 0 0 0
291 1 0 15.860086903962724 24.14072162343986 2.3544921327822124 0 0 0
292 1 0 12.976434739605866 24.14072162343986 2.3544921327822124 0 0 0
293 1 0 17.301912986141158 26.63803765345088 2.354492132782214 0 0 0
294 1 0 17.301912986141154 28.30291500679156 4.708984265564428 0 0 0
295 1 0 18.743739068319584 25.80559897678054 4.7089842655644265 0 0 0
296 1 0 15.860086903962728 25.805598976780544 4.7089842655644265 0 0 0
297 1 0 20.185565150498014 28.302915006791558 4.708984265564428 0 0 0
298 1 0 20.185565150498014 29.96779236013224 7.063476398346641 0 0 0
299 1 0 21.627391232676445 27.470476330121222 7.063476398346641 0 0 0
300 1 0 18.743739068319584 27.470476330121222 7.063476398346641 0 0 0
301 1 0 23.069217314854875 29.96779236013224 7.063476398346641 0 0 0
302 1 0 23.069217314854875 31.63266971347292 9.417968531128853 0 0 0
303 1 0 24.511043397033305 29.1353536834619 9.417968531128853 0 0 0
304 1 0 21.627391232676445 29.1353536834619 9.417968531128853 0 0 0
305 1 0 25.95286947921173 31.63266971347292 9.417968531128853 0 0 0
306 1 0 5.767304328713718 24.9731603001102 1.7763568394002505e-15 0 0 0
307 1 0 7.209130410892148 22.47584427009918 0 0 0 0
308 1 0 4.3254782465352895 22.47584427009918 0 0 0 0
309 1 0 8.650956493070577 24.9731603001102 0 0 0 0
310 1 0 8.650956493070577 26.63803765345088 2.354492132782214 0 0 0
311 1 0 10.092782575249007 24.14072162343986 2.3544921327822124 0 0 0
312 1 0 7.209130410892148 24.14072162343986 2.354492132782214 0 0 0
313 1 0 11.534608657427437 26.63803765345088 2.3544921327822124 0 0 0
314 1 0 11.534608657427434 28.302915006791558 4.708984265564425 0 0 0
315 1 0 12.976434739605864 25.805598976780537 4.708984265564425 0 0 0
316 1 0 10.092782575249007 25.80559897678054 4.7089842655644265 0 0 0
317 1 0 14.418260821784298 28.30291500679156 4.708984265564428 0 0 0
318 1 0 14.418260821784294 29.967792360132243 7.063476398346641 0 0 0
319 1 0 15.860086903962724 27.470476330121222 7.063476398346641 0 0 0
320 1 0 12.976434739605867 27.470476330121222 7.063476398346641 0 0 0
321 1 0 17.301912986141154 29.96779236013224 7.063476398346641 0 0 0
322 1 0 17.301912986141154 31.63266971347292 9.417968531128853 0 0 0
323 1 0 18.743739068319584 29.1353536834619 9.417968531128853 0 0 0
324 1 0 15.860086903962724 29.1353536834619 9.417968531128853 0 0 0
325 1 0 20.185565150498014 31.63266971347292 9.417968531128853 0 0 0
326 1 0 0 24.9731603001102 0 0 0 0
327 1 0 1.4418260821784292 22.47584427009918 0 0 0 0
328 1 0 2.8836521643568602 24.9731603001102 0 0 0 0
329 1 0 2.8836521643568593 26.63803765345088 2.354492132782214 0 0 0
330 1 0 4.325478246535289 24.14072162343986 2.354492132782214 0 0 0
331 1 0 1.441826082178431 24.14072162343986 2.3544921327822124 0 0 0
332 1 0 5.767304328713719 26.63803765345088 2.354492132782214 0 0 0
333 1 0 5.767304328713718 28.302915006791558 4.708984265564428 0 0 0
334 1 0 7.209130410892147 25.805598976780537 4.7089842655644265 0 0 0
335 1 0 4.3254782465352895 25.805598976780537 4.7089842655644265 0 0 0
336 1 0 8.650956493070577 28.302915006791558 4.708984265564428 0 0 0
337 1 0 8.650956493070577 29.96779236013224 7.063476398346641 0 0 0
338 1 0 10.092782575249005 27.47047633012122 7.063476398346641 0 0 0
339 1 0 7.209130410892148 27.470476330121222 7.063476398346641 0 0 0
340 1 0 11.53460865742744 29.967792360132243 7.063476398346641 0 0 0
341 1 0 11.534608657427437 31.63266971347292 9.417968531128853 0 0 0
342 1 0 12.976434739605866 29.1353536834619 9.417968531128853 0 0 0
343 1 0 10.09278257524901 29.1353536834619 9.417968531128853 0 0 0
344 1 0 14.418260821784296 31.63266971347292 9.417968531128853 0 0 0
345 1 0 0 26.63803765345088 2.354492132782214 0 0 0
346 1 0 0 28.302915006791558 4.708984265564428 0 0 0
347 1 0 1.4418260821784283 25.80559897678054 4.708984265564428 0 0 0
348 1 0 2.8836521643568584 28.30291500679156 4.708984265564428 0 0 0
349 1 0 2.8836521643568584 29.96779236013224 7.063476398346641 0 0 0
350 1 0 4.325478246535287 27.470476330121222 7.063476398346641 0 0 0
351 1 0 1.4418260821784301 27.470476330121222 7.063476398346641 0 0 0
352 1 0 5.767304328713717 29.96779236013224 7.063476398346641 0 0 0
353 1 0 5.767304328713717 31.632669713472918 9.417968531128853 0 0 0
354 1 0 7.209130410892145 29.1353536834619 9.417968531128853 0 0 0
355 1 0 4.325478246535289 29.1353536834619 9.417968531128853 0 0 0
356 1 0 8.650956493070579 31.63266971347292 9.417968531128853 0 0 0
357 1 0 0 29.96779236013224 7.063476398346641 0 0 0
358 1 0 0 31.63266971347292 9.417968531128853 0 0 0
359 1 0 1.4418260821784283 29.1353536834619 9.417968531128853 0 0 0
360 1 0 2.8836521643568584 31.63266971347292 9.417968531128853 0 0 0
361 1 0 31.720173807925452 19.97852824008816 0 0 0 0
362 1 0 33.161999890103885 17.48121221007714 0 0 0 0
363 1 0 30.27834772574702 17.48121221007714 0 0 0 0
364 1 0 33.161999890103885 19.14608956341782 2.3544921327822124 0 0 0
365 1 0 25.95286947921173 19.97852824008816 0 0 0 0
366 1 0 27.394695561390165 17.48121221007714 0 0 0 0
367 1 0 24.511043397033305 17.481212210077143 0 0 0 0
368 1 0 28.836521643568595 19.97852824008816 0 0 0 0
369 1 0 28.83652164356859 21.64340559342884 2.354492132782214 0 0 0
370 1 0 30.278347725747025 19.14608956341782 2.3544921327822124 0 0 0
371 1 0 27.39469556139016 19.14608956341782 2.354492132782214 0 0 0
372 1 0 31.720173807925455 21.643405593428838 2.3544921327822124 0 0 0
373 1 0 31.720173807925452 23.30828294676952 4.7089842655644265 0 0 0
374 1 0 33.161999890103885 20.810966916758503 4.708984265564425 0 0 0
375 1 0 30.27834772574702 20.810966916758503 4.7089842655644265 0 0 0
376 1 0 33.16199989010388 22.47584427009918 7.063476398346639 0 0 0
377 1 0 20.185565150498014 19.97852824008816 -1.7763568394002505e-15 0 0 0
378 1 0 21.627391232676445 17.48121221007714 -1.7763568394002505e-15 0 0 0
379 1 0 18.743739068319584 17.48121221007714 -1.7763568394002505e-15 0 0 0
380 1 0 23.069217314854875 19.97852824008816 0 0 0 0
381 1 0 23.069217314854875 21.643405593428838 2.3544921327822124 0 0 0
382 1 0 24.511043397033305 19.14608956341782 2.3544921327822124 0 0 0
383 1 0 21.627391232676448 19.14608956341782 2.3544921327822124 0 0 0
384 1 0 25.952869479211735 21.643405593428838 2.354492132782214 0 0 0
385 1 0 25.952869479211735 23.30828294676952 4.7089842655644265 0 0 0
386 1 0 27.394695561390165 20.810966916758503 4.7089842655644265 0 0 0
387 1 0 24.511043397033305 20.8109669167585 4.7089842655644265 0 0 0
388 1 0 28.836521643568595 23.30828294676952 4.7089842655644265 0 0 0
389 1 0 28.836521643568595 24.9731603001102 7.063476398346641 0 0 0
390 1 0 30.278347725747025 22.47584427009918 7.063476398346639 0 0 0
391 1 0 27.394695561390165 22.47584427009918 7.063476398346639 0 0 0
392 1 0 31.72017380792545 24.9731603001102 7.063476398346641 0 0 0
393 1 0 31.720173807925455 26.63803765345088 9.417968531128857 0 0 0
394 1 0 33.161999890103885 24.14072162343986 9.417968531128853 0 0 0
395 1 0 30.27834772574702 24.14072162343986 9.417968531128853 0 0 0
396 1 0 14.418260821784296 19.97852824008816 0 0 0 0
397 1 0 15.860086903962724 17.48121221007714 0 0 0 0
398 1 0 12.976434739605867 17.48121221007714 0 0 0 0
399 1 0 17.301912986141154 19.97852824008816 0 0 0 0
400 1 0 17.301912986141154 21.643405593428838 2.3544921327822124 0 0 0
401 1 0 18.743739068319584 19.146089563417817 2.3544921327822124 0 0 0
402 1 0 15.860086903962726 19.14608956341782 2.3544921327822124 0 0 0
403 1 0 20.185565150498018 21.64340559342884 2.3544921327822124 0 0 0
404 1 0 20.185565150498014 23.30828294676952 4.7089842655644265 0 0 0
405 1 0 21.627391232676445 20.810966916758503 4.708984265564425 0 0 0
406 1 0 18.743739068319588 20.810966916758503 4.7089842655644265 0 0 0
407 1 0 23.069217314854875 23.30828294676952 4.708984265564428 0 0 0
408 1 0 23.069217314854875 24.9731603001102 7.063476398346641 0 0 0
409 1 0 24.511043397033305 22.47584427009918 7.063476398346641 0 0 0
410 1 0 21.627391232676445 22.47584427009918 7.063476398346641 0 0 0
411 1 0 25.952869479211735 24.9731603001102 7.063476398346641 0 0 0
412 1 0 25.952869479211735 26.63803765345088 9.417968531128853 0 0 0
413 1 0 27.394695561390165 24.14072162343986 9.417968531128853 0 0 0
414 1 0 24.511043397033305 24.14072162343986 9.417968531128853 0 0 0
415 1 0 28.83652164356859 26.63803765345088 9.417968531128853 0 0 0
416 1 0 8.650956493070577 19.97852824008816 0 0 0 0
417 1 0 10.092782575249007 17.48121221007714 0 0 0 0
418 1 0 7.209130410892149 17.48121221007714 0 0 0 0
419 1 0 11.534608657427437 19.97852824008816 0 0 0 0
420 1 0 11.534608657427436 21.643405593428838 2.3544921327822124 0 0 0
421 1 0 12.976434739605866 19.14608956341782 2.3544921327822124 0 0 0
422 1 0 10.092782575249007 19.14608956341782 2.3544921327822124 0 0 0
423 1 0 14.418260821784296 21.643405593428838 2.3544921327822124 0 0 0
424 1 0 14.418260821784294 23.30828294676952 4.708984265564425 0 0 0
425 1 0 15.860086903962724 20.8109669167585 4.708984265564425 0 0 0
426 1 0 12.976434739605866 20.810966916758503 4.708984265564425 0 0 0
427 1 0 17.301912986141158 23.308282946769523 4.7089842655644265 0 0 0
428 1 0 17.301912986141154 24.9731603001102 7.063476398346641 0 0 0
429 1 0 18.743739068319584 22.47584427009918 7.063476398346639 0 0 0
430 1 0 15.860086903962728 22.47584427009918 7.063476398346639 0 0 0
431 1 0 20.185565150498014 24.9731603001102 7.063476398346641 0 0 0
432 1 0 20.185565150498014 26.63803765345088 9.417968531128853 0 0 0
433 1 0 21.627391232676445 24.14072162343986 9.417968531128853 0 0 0
434 1 0 18.743739068319584 24.14072162343986 9.417968531128853 0 0 0
435 1 0 23.069217314854875 26.63803765345088 9.417968531128853 0 0 0
436 1 0 2.8836521643568584 19.97852824008816 0 0 0 0
437 1 0 4.325478246535289 17.48121221007714 0 0 0 0
438 1 0 1.4418260821784292 17.48121221007714 0 0 0 0
439 1 0 5.76730432871372 19.97852824008816 0 0 0 0
440 1 0 5.767304328713718 21.643405593428838 2.354492132782214 0 0 0
441 1 0 7.209130410892148 19.14608956341782 2.3544921327822124 0 0 0
442 1 0 4.3254782465352895 19.14608956341782 2.3544921327822124 0 0 0
443 1 0 8.650956493070577 21.643405593428838 2.3544921327822124 0 0 0
444 1 0 8.650956493070577 23.30828294676952 4.7089842655644265 0 0 0
445 1 0 10.092782575249007 20.810966916758503 4.708984265564425 0 0 0
446 1 0 7.209130410892148 20.810966916758503 4.7089842655644265 0 0 0
447 1 0 11.534608657427437 23.30828294676952 4.708984265564425 0 0 0
448 1 0 11.534608657427434 24.9731603001102 7.063476398346637 0 0 0
449 1 0 12.976434739605864 22.47584427009918 7.063476398346637 0 0 0
450 1 0 10.092782575249007 22.47584427009918 7.063476398346639 0 0 0
451 1 0 14.418260821784298 24.9731603001102 7.063476398346641 0 0 0
452 1 0 14.418260821784294 26.63803765345088 9.417968531128853 0 0 0