# LAMMPS data file written by OVITO Basic 3.8.0

966 atoms
4 atom types

-5.7673043287e-08 34.6038259723 xlo xhi
-6.6595094134e-08 39.9570564802 ylo yhi
-7.0634763983e-06 42.3808583901 zlo zhi

Atom Type Labels

1 Au
2 S
3 C
4 H

Masses

1 196.97
2 32.06
3 12.011
4 1.008

Atoms  # charge

961 1 0.0 11.6713860087 15.0680856566 11.5537373339
966 2 0.0 13.0614909079 15.6807072476 13.5486894325
962 3 0.0 14.7232358416 15.6198526504 12.8707651087
965 4 0.0 14.8282584536 14.7332455227 12.1724132078
963 4 0.0 15.4737582243 15.507173751 13.7111776707
964 4 0.0 14.9469841807 16.5745865596 12.3024800838
786 1 0.0 5.7673158153 4.9946320018 1.5304201217e-11
788 1 0.0 4.3254781961 2.4973159676 1.5304201217e-11
806 1 0.0 1.1544220849e-13 4.9946320018 1.5304201217e-11
807 1 0.0 1.4418271804 2.4973159676 1.5304201217e-11
808 1 0.0 2.883650958 4.9946320018 1.5304201217e-11
810 1 0.0 4.3254781961 4.1622066427 2.3544915834
811 1 0.0 1.4418271804 4.1622066427 2.3544915834
815 1 0.0 4.3254781961 5.8270573608 4.7089732779
827 1 0.0 1.4418271804 5.8270573608 4.7089732779
897 1 0.0 2.883650958 1.3330118032e-13 1.5304201217e-11
898 1 0.0 5.7673158153 1.3330118032e-13 1.5304201217e-11
899 1 0.0 5.7673158153 1.6648786214 2.3544915834
913 1 0.0 1.1544220849e-13 1.3330118032e-13 1.5304201217e-11
914 1 0.0 1.1544220849e-13 1.6648786214 2.3544915834
915 1 0.0 2.883650958 1.6648786214 2.3544915834
916 1 0.0 2.883650958 3.3297533137 4.7089732779
917 1 0.0 4.3254781961 0.8324372796 4.7089732779
918 1 0.0 1.4418271804 0.8324372796 4.7089732779
919 1 0.0 5.7673158153 3.3297533137 4.7089732779
928 1 0.0 1.1544220849e-13 3.3297533137 4.7089732779
766 1 0.0 11.5345970844 4.9946320018 1.5304201217e-11
767 1 0.0 12.9764347036 2.4973159676 1.5304201217e-11
768 1 0.0 10.092794069 2.4973159676 1.5304201217e-11
772 1 0.0 12.9764347036 4.1622066427 2.3544915834
787 1 0.0 7.2091188306 2.4973159676 1.5304201217e-11
789 1 0.0 8.6509564498 4.9946320018 1.5304201217e-11
791 1 0.0 10.092794069 4.1622066427 2.3544915834
792 1 0.0 7.2091188306 4.1622066427 2.3544915834
795 1 0.0 12.9764347036 5.8270573608 4.7089732779
796 1 0.0 10.092794069 5.8270573608 4.7089732779
814 1 0.0 7.2091188306 5.8270573608 4.7089732779
881 1 0.0 8.6509564498 1.3330118032e-13 1.5304201217e-11
882 1 0.0 11.5345970844 1.3330118032e-13 1.5304201217e-11
883 1 0.0 11.5345970844 1.6648786214 2.3544915834
887 1 0.0 12.9764347036 0.8324372796 4.7089732779
900 1 0.0 8.6509564498 1.6648786214 2.3544915834
901 1 0.0 8.6509564498 3.3297533137 4.7089732779
902 1 0.0 10.092794069 0.8324372796 4.7089732779
903 1 0.0 7.2091188306 0.8324372796 4.7089732779
904 1 0.0 11.5345970844 3.3297533137 4.7089732779
746 1 0.0 17.3019129573 4.9946320018 1.5304201217e-11
747 1 0.0 18.7437505765 2.4973159676 1.5304201217e-11
748 1 0.0 15.8600753381 2.4973159676 1.5304201217e-11
749 1 0.0 20.1855535919 4.9946320018 1.5304201217e-11
752 1 0.0 18.7437505765 4.1622066427 2.3544915834
769 1 0.0 14.4182723228 4.9946320018 1.5304201217e-11
771 1 0.0 15.8600753381 4.1622066427 2.3544915834
775 1 0.0 18.7437505765 5.8270573608 4.7089732779
776 1 0.0 15.8600753381 5.8270573608 4.7089732779
850 1 0.0 20.1855535919 1.3330118032e-13 1.5304201217e-11
865 1 0.0 14.4182723228 1.3330118032e-13 1.5304201217e-11
866 1 0.0 17.3019129573 1.3330118032e-13 1.5304201217e-11
867 1 0.0 17.3019129573 1.6648786214 2.3544915834
868 1 0.0 20.1855535919 1.6648786214 2.3544915834
869 1 0.0 20.1855535919 3.3297533137 4.7089732779
871 1 0.0 18.7437505765 0.8324372796 4.7089732779
884 1 0.0 14.4182723228 1.6648786214 2.3544915834
885 1 0.0 14.4182723228 3.3297533137 4.7089732779
886 1 0.0 15.8600753381 0.8324372796 4.7089732779
888 1 0.0 17.3019129573 3.3297533137 4.7089732779
724 1 0.0 27.394707084 2.4973159676 1.5304201217e-11
730 1 0.0 23.0692288302 4.9946320018 1.5304201217e-11
731 1 0.0 24.5110318456 2.4973159676 1.5304201217e-11
732 1 0.0 21.627391211 2.4973159676 1.5304201217e-11
733 1 0.0 25.9528694648 4.9946320018 1.5304201217e-11
735 1 0.0 27.394707084 4.1622066427 2.3544915834
736 1 0.0 24.5110318456 4.1622066427 2.3544915834
740 1 0.0 27.394707084 5.8270573608 4.7089732779
751 1 0.0 21.627391211 4.1622066427 2.3544915834
755 1 0.0 24.5110318456 5.8270573608 4.7089732779
756 1 0.0 21.627391211 5.8270573608 4.7089732779
842 1 0.0 25.9528694648 1.3330118032e-13 1.5304201217e-11
851 1 0.0 23.0692288302 1.3330118032e-13 1.5304201217e-11
852 1 0.0 23.0692288302 1.6648786214 2.3544915834
853 1 0.0 25.9528694648 1.6648786214 2.3544915834
854 1 0.0 25.9528694648 3.3297533137 4.7089732779
855 1 0.0 27.394707084 0.8324372796 4.7089732779
856 1 0.0 24.5110318456 0.8324372796 4.7089732779
870 1 0.0 21.627391211 0.8324372796 4.7089732779
872 1 0.0 23.0692288302 3.3297533137 4.7089732779
721 1 0.0 33.1619883531 2.4973159676 1.5304201217e-11
722 1 0.0 28.8365100993 4.9946320018 1.5304201217e-11
723 1 0.0 30.2783477185 2.4973159676 1.5304201217e-11
725 1 0.0 31.7201853377 4.9946320018 1.5304201217e-11
727 1 0.0 33.1619883531 4.1622066427 2.3544915834
728 1 0.0 30.2783477185 4.1622066427 2.3544915834
729 1 0.0 33.1619883531 5.8270573608 4.7089732779
739 1 0.0 30.2783477185 5.8270573608 4.7089732779
841 1 0.0 31.7201853377 1.3330118032e-13 1.5304201217e-11
843 1 0.0 28.8365100993 1.3330118032e-13 1.5304201217e-11
844 1 0.0 28.8365100993 1.6648786214 2.3544915834
845 1 0.0 31.7201853377 1.6648786214 2.3544915834
846 1 0.0 31.7201853377 3.3297533137 4.7089732779
847 1 0.0 33.1619883531 0.8324372796 4.7089732779
848 1 0.0 30.2783477185 0.8324372796 4.7089732779
857 1 0.0 28.8365100993 3.3297533137 4.7089732779
548 1 0.0 4.3254781961 12.4865801043 1.5304201217e-11
567 1 0.0 1.4418271804 12.4865801043 1.5304201217e-11
676 1 0.0 2.883650958 9.9892640701 1.5304201217e-11
677 1 0.0 4.3254781961 7.4919480359 1.5304201217e-11
678 1 0.0 1.4418271804 7.4919480359 1.5304201217e-11
679 1 0.0 5.7673158153 9.9892640701 1.5304201217e-11
680 1 0.0 5.7673158153 11.6541547452 2.3544915834
682 1 0.0 4.3254781961 9.1568387111 2.3544915834
696 1 0.0 1.1544220849e-13 9.9892640701 1.5304201217e-11
697 1 0.0 1.1544220849e-13 11.6541547452 2.3544915834
698 1 0.0 1.4418271804 9.1568387111 2.3544915834
699 1 0.0 2.883650958 11.6541547452 2.3544915834
701 1 0.0 4.3254781961 10.8216894291 4.7089732779
702 1 0.0 1.4418271804 10.8216894291 4.7089732779
809 1 0.0 2.883650958 6.6595226769 2.3544915834
812 1 0.0 5.7673158153 6.6595226769 2.3544915834
813 1 0.0 5.7673158153 8.324373395 4.7089732779
825 1 0.0 1.1544220849e-13 6.6595226769 2.3544915834
826 1 0.0 1.1544220849e-13 8.324373395 4.7089732779
828 1 0.0 2.883650958 8.324373395 4.7089732779
527 1 0.0 12.9764347036 12.4865801043 1.5304201217e-11
528 1 0.0 10.092794069 12.4865801043 1.5304201217e-11
547 1 0.0 7.2091188306 12.4865801043 1.5304201217e-11
638 1 0.0 12.9764347036 7.4919480359 1.5304201217e-11
656 1 0.0 8.6509564498 9.9892640701 1.5304201217e-11
657 1 0.0 10.092794069 7.4919480359 1.5304201217e-11
658 1 0.0 7.2091188306 7.4919480359 1.5304201217e-11
659 1 0.0 11.5345970844 9.9892640701 1.5304201217e-11
660 1 0.0 11.5345970844 11.6541547452 2.3544915834
661 1 0.0 12.9764347036 9.1568387111 2.3544915834
662 1 0.0 10.092794069 9.1568387111 2.3544915834
666 1 0.0 12.9764347036 10.8216894291 4.7089732779
681 1 0.0 7.2091188306 9.1568387111 2.3544915834
683 1 0.0 8.6509564498 11.6541547452 2.3544915834
685 1 0.0 10.092794069 10.8216894291 4.7089732779
686 1 0.0 7.2091188306 10.8216894291 4.7089732779
790 1 0.0 8.6509564498 6.6595226769 2.3544915834
793 1 0.0 11.5345970844 6.6595226769 2.3544915834
794 1 0.0 11.5345970844 8.324373395 4.7089732779
816 1 0.0 8.6509564498 8.324373395 4.7089732779
507 1 0.0 18.7437505765 12.4865801043 1.5304201217e-11
508 1 0.0 15.8600753381 12.4865801043 1.5304201217e-11
617 1 0.0 20.1855535919 9.9892640701 1.5304201217e-11
619 1 0.0 18.7437505765 7.4919480359 1.5304201217e-11
636 1 0.0 14.4182723228 9.9892640701 1.5304201217e-11
637 1 0.0 15.8600753381 7.4919480359 1.5304201217e-11
639 1 0.0 17.3019129573 9.9892640701 1.5304201217e-11
640 1 0.0 17.3019129573 11.6541547452 2.3544915834
641 1 0.0 18.7437505765 9.1568387111 2.3544915834
642 1 0.0 15.8600753381 9.1568387111 2.3544915834
643 1 0.0 20.1855535919 11.6541547452 2.3544915834
646 1 0.0 18.7437505765 10.8216894291 4.7089732779
663 1 0.0 14.4182723228 11.6541547452 2.3544915834
665 1 0.0 15.8600753381 10.8216894291 4.7089732779
750 1 0.0 20.1855535919 6.6595226769 2.3544915834
770 1 0.0 14.4182723228 6.6595226769 2.3544915834
773 1 0.0 17.3019129573 6.6595226769 2.3544915834
774 1 0.0 17.3019129573 8.324373395 4.7089732779
777 1 0.0 20.1855535919 8.324373395 4.7089732779
797 1 0.0 14.4182723228 8.324373395 4.7089732779
484 1 0.0 27.394707084 12.4865801043 1.5304201217e-11
491 1 0.0 24.5110318456 12.4865801043 1.5304201217e-11
492 1 0.0 21.627391211 12.4865801043 1.5304201217e-11
605 1 0.0 25.9528694648 9.9892640701 1.5304201217e-11
606 1 0.0 27.394707084 7.4919480359 1.5304201217e-11
607 1 0.0 24.5110318456 7.4919480359 1.5304201217e-11
611 1 0.0 27.394707084 9.1568387111 2.3544915834
618 1 0.0 21.627391211 7.4919480359 1.5304201217e-11
620 1 0.0 23.0692288302 9.9892640701 1.5304201217e-11
621 1 0.0 23.0692288302 11.6541547452 2.3544915834
622 1 0.0 24.5110318456 9.1568387111 2.3544915834
623 1 0.0 21.627391211 9.1568387111 2.3544915834
624 1 0.0 25.9528694648 11.6541547452 2.3544915834
626 1 0.0 27.394707084 10.8216894291 4.7089732779
627 1 0.0 24.5110318456 10.8216894291 4.7089732779
645 1 0.0 21.627391211 10.8216894291 4.7089732779
734 1 0.0 25.9528694648 6.6595226769 2.3544915834
753 1 0.0 23.0692288302 6.6595226769 2.3544915834
754 1 0.0 23.0692288302 8.324373395 4.7089732779
757 1 0.0 25.9528694648 8.324373395 4.7089732779
481 1 0.0 33.1619883531 12.4865801043 1.5304201217e-11
483 1 0.0 30.2783477185 12.4865801043 1.5304201217e-11
601 1 0.0 31.7201853377 9.9892640701 1.5304201217e-11
602 1 0.0 33.1619883531 7.4919480359 1.5304201217e-11
603 1 0.0 30.2783477185 7.4919480359 1.5304201217e-11
604 1 0.0 33.1619883531 9.1568387111 2.3544915834
608 1 0.0 28.8365100993 9.9892640701 1.5304201217e-11
609 1 0.0 28.8365100993 11.6541547452 2.3544915834
610 1 0.0 30.2783477185 9.1568387111 2.3544915834
612 1 0.0 31.7201853377 11.6541547452 2.3544915834
614 1 0.0 33.1619883531 10.8216894291 4.7089732779
615 1 0.0 30.2783477185 10.8216894291 4.7089732779
726 1 0.0 31.7201853377 6.6595226769 2.3544915834
737 1 0.0 28.8365100993 6.6595226769 2.3544915834
738 1 0.0 28.8365100993 8.324373395 4.7089732779
741 1 0.0 31.7201853377 8.324373395 4.7089732779
437 1 0.0 4.3254781961 17.4812121726 1.5304201217e-11
438 1 0.0 1.4418271804 17.4812121726 1.5304201217e-11
442 1 0.0 4.3254781961 19.1461028478 2.3544915834
458 1 0.0 1.4418271804 19.1461028478 2.3544915834
546 1 0.0 5.7673158153 14.9838961384 1.5304201217e-11
566 1 0.0 1.1544220849e-13 14.9838961384 1.5304201217e-11
568 1 0.0 2.883650958 14.9838961384 1.5304201217e-11
569 1 0.0 2.883650958 16.6487868136 2.3544915834
570 1 0.0 4.3254781961 14.1514707794 2.3544915834
571 1 0.0 1.4418271804 14.1514707794 2.3544915834
572 1 0.0 5.7673158153 16.6487868136 2.3544915834
573 1 0.0 5.7673158153 18.3136375317 4.7089732779
575 1 0.0 4.3254781961 15.8163214975 4.7089732779
585 1 0.0 1.1544220849e-13 16.6487868136 2.3544915834
586 1 0.0 1.1544220849e-13 18.3136375317 4.7089732779
587 1 0.0 1.4418271804 15.8163214975 4.7089732779
588 1 0.0 2.883650958 18.3136375317 4.7089732779
700 1 0.0 2.883650958 13.3190054633 4.7089732779
703 1 0.0 5.7673158153 13.3190054633 4.7089732779
712 1 0.0 1.1544220849e-13 13.3190054633 4.7089732779
398 1 0.0 12.9764347036 17.4812121726 1.5304201217e-11
417 1 0.0 10.092794069 17.4812121726 1.5304201217e-11
418 1 0.0 7.2091188306 17.4812121726 1.5304201217e-11
421 1 0.0 12.9764347036 19.1461028478 2.3544915834
422 1 0.0 10.092794069 19.1461028478 2.3544915834
441 1 0.0 7.2091188306 19.1461028478 2.3544915834
526 1 0.0 11.5345970844 14.9838961384 1.5304201217e-11
532 1 0.0 12.9764347036 14.1514707794 2.3544915834
549 1 0.0 8.6509564498 14.9838961384 1.5304201217e-11
550 1 0.0 8.6509564498 16.6487868136 2.3544915834
551 1 0.0 10.092794069 14.1514707794 2.3544915834
552 1 0.0 7.2091188306 14.1514707794 2.3544915834
553 1 0.0 11.5345970844 16.6487868136 2.3544915834
554 1 0.0 11.5345970844 18.3136375317 4.7089732779
555 1 0.0 12.9764347036 15.8163214975 4.7089732779
556 1 0.0 10.092794069 15.8163214975 4.7089732779
574 1 0.0 7.2091188306 15.8163214975 4.7089732779
576 1 0.0 8.6509564498 18.3136375317 4.7089732779
684 1 0.0 8.6509564498 13.3190054633 4.7089732779
687 1 0.0 11.5345970844 13.3190054633 4.7089732779
379 1 0.0 18.7437505765 17.4812121726 1.5304201217e-11
397 1 0.0 15.8600753381 17.4812121726 1.5304201217e-11
401 1 0.0 18.7437505765 19.1461028478 2.3544915834
402 1 0.0 15.8600753381 19.1461028478 2.3544915834
506 1 0.0 17.3019129573 14.9838961384 1.5304201217e-11
509 1 0.0 20.1855535919 14.9838961384 1.5304201217e-11
510 1 0.0 20.1855535919 16.6487868136 2.3544915834
512 1 0.0 18.7437505765 14.1514707794 2.3544915834
529 1 0.0 14.4182723228 14.9838961384 1.5304201217e-11
530 1 0.0 14.4182723228 16.6487868136 2.3544915834
531 1 0.0 15.8600753381 14.1514707794 2.3544915834
533 1 0.0 17.3019129573 16.6487868136 2.3544915834
534 1 0.0 17.3019129573 18.3136375317 4.7089732779
535 1 0.0 18.7437505765 15.8163214975 4.7089732779
536 1 0.0 15.8600753381 15.8163214975 4.7089732779
537 1 0.0 20.1855535919 18.3136375317 4.7089732779
557 1 0.0 14.4182723228 18.3136375317 4.7089732779
644 1 0.0 20.1855535919 13.3190054633 4.7089732779
664 1 0.0 14.4182723228 13.3190054633 4.7089732779
667 1 0.0 17.3019129573 13.3190054633 4.7089732779
366 1 0.0 27.394707084 17.4812121726 1.5304201217e-11
367 1 0.0 24.5110318456 17.4812121726 1.5304201217e-11
371 1 0.0 27.394707084 19.1461028478 2.3544915834
378 1 0.0 21.627391211 17.4812121726 1.5304201217e-11
382 1 0.0 24.5110318456 19.1461028478 2.3544915834
383 1 0.0 21.627391211 19.1461028478 2.3544915834
490 1 0.0 23.0692288302 14.9838961384 1.5304201217e-11
493 1 0.0 25.9528694648 14.9838961384 1.5304201217e-11
494 1 0.0 25.9528694648 16.6487868136 2.3544915834
495 1 0.0 27.394707084 14.1514707794 2.3544915834
496 1 0.0 24.5110318456 14.1514707794 2.3544915834
500 1 0.0 27.394707084 15.8163214975 4.7089732779
511 1 0.0 21.627391211 14.1514707794 2.3544915834
513 1 0.0 23.0692288302 16.6487868136 2.3544915834
514 1 0.0 23.0692288302 18.3136375317 4.7089732779
515 1 0.0 24.5110318456 15.8163214975 4.7089732779
516 1 0.0 21.627391211 15.8163214975 4.7089732779
517 1 0.0 25.9528694648 18.3136375317 4.7089732779
625 1 0.0 25.9528694648 13.3190054633 4.7089732779
647 1 0.0 23.0692288302 13.3190054633 4.7089732779
362 1 0.0 33.1619883531 17.4812121726 1.5304201217e-11
363 1 0.0 30.2783477185 17.4812121726 1.5304201217e-11
364 1 0.0 33.1619883531 19.1461028478 2.3544915834
370 1 0.0 30.2783477185 19.1461028478 2.3544915834
482 1 0.0 28.8365100993 14.9838961384 1.5304201217e-11
485 1 0.0 31.7201853377 14.9838961384 1.5304201217e-11
486 1 0.0 31.7201853377 16.6487868136 2.3544915834
487 1 0.0 33.1619883531 14.1514707794 2.3544915834
488 1 0.0 30.2783477185 14.1514707794 2.3544915834
489 1 0.0 33.1619883531 15.8163214975 4.7089732779
497 1 0.0 28.8365100993 16.6487868136 2.3544915834
498 1 0.0 28.8365100993 18.3136375317 4.7089732779
499 1 0.0 30.2783477185 15.8163214975 4.7089732779
501 1 0.0 31.7201853377 18.3136375317 4.7089732779
613 1 0.0 31.7201853377 13.3190054633 4.7089732779
628 1 0.0 28.8365100993 13.3190054633 4.7089732779
306 1 0.0 5.7673158153 24.9731602751 1.5304201217e-11
308 1 0.0 4.3254781961 22.475844241 1.5304201217e-11
326 1 0.0 1.1544220849e-13 24.9731602751 1.5304201217e-11
327 1 0.0 1.4418271804 22.475844241 1.5304201217e-11
328 1 0.0 2.883650958 24.9731602751 1.5304201217e-11
330 1 0.0 4.3254781961 24.1407349161 2.3544915834
331 1 0.0 1.4418271804 24.1407349161 2.3544915834
335 1 0.0 4.3254781961 25.8055856342 4.7089732779
347 1 0.0 1.4418271804 25.8055856342 4.7089732779
436 1 0.0 2.883650958 19.9785282068 1.5304201217e-11
439 1 0.0 5.7673158153 19.9785282068 1.5304201217e-11
440 1 0.0 5.7673158153 21.6434188819 2.3544915834
456 1 0.0 1.1544220849e-13 19.9785282068 1.5304201217e-11
457 1 0.0 1.1544220849e-13 21.6434188819 2.3544915834
459 1 0.0 2.883650958 21.6434188819 2.3544915834
460 1 0.0 2.883650958 23.3082696 4.7089732779
461 1 0.0 4.3254781961 20.8109535658 4.7089732779
462 1 0.0 1.4418271804 20.8109535658 4.7089732779
463 1 0.0 5.7673158153 23.3082696 4.7089732779
472 1 0.0 1.1544220849e-13 23.3082696 4.7089732779
286 1 0.0 11.5345970844 24.9731602751 1.5304201217e-11
287 1 0.0 12.9764347036 22.475844241 1.5304201217e-11
288 1 0.0 10.092794069 22.475844241 1.5304201217e-11
292 1 0.0 12.9764347036 24.1407349161 2.3544915834
307 1 0.0 7.2091188306 22.475844241 1.5304201217e-11
309 1 0.0 8.6509564498 24.9731602751 1.5304201217e-11
311 1 0.0 10.092794069 24.1407349161 2.3544915834
312 1 0.0 7.2091188306 24.1407349161 2.3544915834
315 1 0.0 12.9764347036 25.8055856342 4.7089732779
316 1 0.0 10.092794069 25.8055856342 4.7089732779
334 1 0.0 7.2091188306 25.8055856342 4.7089732779
416 1 0.0 8.6509564498 19.9785282068 1.5304201217e-11
419 1 0.0 11.5345970844 19.9785282068 1.5304201217e-11
420 1 0.0 11.5345970844 21.6434188819 2.3544915834
426 1 0.0 12.9764347036 20.8109535658 4.7089732779
443 1 0.0 8.6509564498 21.6434188819 2.3544915834
444 1 0.0 8.6509564498 23.3082696 4.7089732779
445 1 0.0 10.092794069 20.8109535658 4.7089732779
446 1 0.0 7.2091188306 20.8109535658 4.7089732779
447 1 0.0 11.5345970844 23.3082696 4.7089732779
266 1 0.0 17.3019129573 24.9731602751 1.5304201217e-11
267 1 0.0 18.7437505765 22.475844241 1.5304201217e-11
268 1 0.0 15.8600753381 22.475844241 1.5304201217e-11
269 1 0.0 20.1855535919 24.9731602751 1.5304201217e-11
272 1 0.0 18.7437505765 24.1407349161 2.3544915834
289 1 0.0 14.4182723228 24.9731602751 1.5304201217e-11
291 1 0.0 15.8600753381 24.1407349161 2.3544915834
295 1 0.0 18.7437505765 25.8055856342 4.7089732779
296 1 0.0 15.8600753381 25.8055856342 4.7089732779
377 1 0.0 20.1855535919 19.9785282068 1.5304201217e-11
396 1 0.0 14.4182723228 19.9785282068 1.5304201217e-11
399 1 0.0 17.3019129573 19.9785282068 1.5304201217e-11
400 1 0.0 17.3019129573 21.6434188819 2.3544915834
403 1 0.0 20.1855535919 21.6434188819 2.3544915834
404 1 0.0 20.1855535919 23.3082696 4.7089732779
406 1 0.0 18.7437505765 20.8109535658 4.7089732779
423 1 0.0 14.4182723228 21.6434188819 2.3544915834
424 1 0.0 14.4182723228 23.3082696 4.7089732779
425 1 0.0 15.8600753381 20.8109535658 4.7089732779
427 1 0.0 17.3019129573 23.3082696 4.7089732779
244 1 0.0 27.394707084 22.475844241 1.5304201217e-11
250 1 0.0 23.0692288302 24.9731602751 1.5304201217e-11
251 1 0.0 24.5110318456 22.475844241 1.5304201217e-11
252 1 0.0 21.627391211 22.475844241 1.5304201217e-11
253 1 0.0 25.9528694648 24.9731602751 1.5304201217e-11
255 1 0.0 27.394707084 24.1407349161 2.3544915834
256 1 0.0 24.5110318456 24.1407349161 2.3544915834
260 1 0.0 27.394707084 25.8055856342 4.7089732779
271 1 0.0 21.627391211 24.1407349161 2.3544915834
275 1 0.0 24.5110318456 25.8055856342 4.7089732779
276 1 0.0 21.627391211 25.8055856342 4.7089732779
365 1 0.0 25.9528694648 19.9785282068 1.5304201217e-11
380 1 0.0 23.0692288302 19.9785282068 1.5304201217e-11
381 1 0.0 23.0692288302 21.6434188819 2.3544915834
384 1 0.0 25.9528694648 21.6434188819 2.3544915834
385 1 0.0 25.9528694648 23.3082696 4.7089732779
386 1 0.0 27.394707084 20.8109535658 4.7089732779
387 1 0.0 24.5110318456 20.8109535658 4.7089732779
405 1 0.0 21.627391211 20.8109535658 4.7089732779
407 1 0.0 23.0692288302 23.3082696 4.7089732779
241 1 0.0 33.1619883531 22.475844241 1.5304201217e-11
242 1 0.0 28.8365100993 24.9731602751 1.5304201217e-11
243 1 0.0 30.2783477185 22.475844241 1.5304201217e-11
245 1 0.0 31.7201853377 24.9731602751 1.5304201217e-11
247 1 0.0 33.1619883531 24.1407349161 2.3544915834
248 1 0.0 30.2783477185 24.1407349161 2.3544915834
249 1 0.0 33.1619883531 25.8055856342 4.7089732779
259 1 0.0 30.2783477185 25.8055856342 4.7089732779
361 1 0.0 31.7201853377 19.9785282068 1.5304201217e-11
368 1 0.0 28.8365100993 19.9785282068 1.5304201217e-11
369 1 0.0 28.8365100993 21.6434188819 2.3544915834
372 1 0.0 31.7201853377 21.6434188819 2.3544915834
373 1 0.0 31.7201853377 23.3082696 4.7089732779
374 1 0.0 33.1619883531 20.8109535658 4.7089732779
375 1 0.0 30.2783477185 20.8109535658 4.7089732779
388 1 0.0 28.8365100993 23.3082696 4.7089732779
83 1 0.0 4.3254781961 32.4651083777 1.5304201217e-11
98 1 0.0 1.4418271804 32.4651083777 1.5304201217e-11
196 1 0.0 2.883650958 29.9677923435 1.5304201217e-11
197 1 0.0 4.3254781961 27.4704763093 1.5304201217e-11
198 1 0.0 1.4418271804 27.4704763093 1.5304201217e-11
199 1 0.0 5.7673158153 29.9677923435 1.5304201217e-11
200 1 0.0 5.7673158153 31.6326830186 2.3544915834
202 1 0.0 4.3254781961 29.1353669844 2.3544915834
216 1 0.0 1.1544220849e-13 29.9677923435 1.5304201217e-11
217 1 0.0 1.1544220849e-13 31.6326830186 2.3544915834
218 1 0.0 1.4418271804 29.1353669844 2.3544915834
219 1 0.0 2.883650958 31.6326830186 2.3544915834
221 1 0.0 4.3254781961 30.8002177025 4.7089732779
222 1 0.0 1.4418271804 30.8002177025 4.7089732779
329 1 0.0 2.883650958 26.6380509503 2.3544915834
332 1 0.0 5.7673158153 26.6380509503 2.3544915834
333 1 0.0 5.7673158153 28.3029016683 4.7089732779
345 1 0.0 1.1544220849e-13 26.6380509503 2.3544915834
346 1 0.0 1.1544220849e-13 28.3029016683 4.7089732779
348 1 0.0 2.883650958 28.3029016683 4.7089732779
66 1 0.0 12.9764347036 32.4651083777 1.5304201217e-11
67 1 0.0 10.092794069 32.4651083777 1.5304201217e-11
82 1 0.0 7.2091188306 32.4651083777 1.5304201217e-11
158 1 0.0 12.9764347036 27.4704763093 1.5304201217e-11
176 1 0.0 8.6509564498 29.9677923435 1.5304201217e-11
177 1 0.0 10.092794069 27.4704763093 1.5304201217e-11
178 1 0.0 7.2091188306 27.4704763093 1.5304201217e-11
179 1 0.0 11.5345970844 29.9677923435 1.5304201217e-11
180 1 0.0 11.5345970844 31.6326830186 2.3544915834
181 1 0.0 12.9764347036 29.1353669844 2.3544915834
182 1 0.0 10.092794069 29.1353669844 2.3544915834
186 1 0.0 12.9764347036 30.8002177025 4.7089732779
201 1 0.0 7.2091188306 29.1353669844 2.3544915834
203 1 0.0 8.6509564498 31.6326830186 2.3544915834
205 1 0.0 10.092794069 30.8002177025 4.7089732779
206 1 0.0 7.2091188306 30.8002177025 4.7089732779
310 1 0.0 8.6509564498 26.6380509503 2.3544915834
313 1 0.0 11.5345970844 26.6380509503 2.3544915834
314 1 0.0 11.5345970844 28.3029016683 4.7089732779
336 1 0.0 8.6509564498 28.3029016683 4.7089732779
50 1 0.0 18.7437505765 32.4651083777 1.5304201217e-11
51 1 0.0 15.8600753381 32.4651083777 1.5304201217e-11
137 1 0.0 20.1855535919 29.9677923435 1.5304201217e-11
139 1 0.0 18.7437505765 27.4704763093 1.5304201217e-11
156 1 0.0 14.4182723228 29.9677923435 1.5304201217e-11
157 1 0.0 15.8600753381 27.4704763093 1.5304201217e-11
159 1 0.0 17.3019129573 29.9677923435 1.5304201217e-11
160 1 0.0 17.3019129573 31.6326830186 2.3544915834
161 1 0.0 18.7437505765 29.1353669844 2.3544915834
162 1 0.0 15.8600753381 29.1353669844 2.3544915834
163 1 0.0 20.1855535919 31.6326830186 2.3544915834
166 1 0.0 18.7437505765 30.8002177025 4.7089732779
183 1 0.0 14.4182723228 31.6326830186 2.3544915834
185 1 0.0 15.8600753381 30.8002177025 4.7089732779
270 1 0.0 20.1855535919 26.6380509503 2.3544915834
290 1 0.0 14.4182723228 26.6380509503 2.3544915834
293 1 0.0 17.3019129573 26.6380509503 2.3544915834
294 1 0.0 17.3019129573 28.3029016683 4.7089732779
297 1 0.0 20.1855535919 28.3029016683 4.7089732779
317 1 0.0 14.4182723228 28.3029016683 4.7089732779
28 1 0.0 27.394707084 32.4651083777 1.5304201217e-11
35 1 0.0 24.5110318456 32.4651083777 1.5304201217e-11
36 1 0.0 21.627391211 32.4651083777 1.5304201217e-11
125 1 0.0 25.9528694648 29.9677923435 1.5304201217e-11
126 1 0.0 27.394707084 27.4704763093 1.5304201217e-11
127 1 0.0 24.5110318456 27.4704763093 1.5304201217e-11
131 1 0.0 27.394707084 29.1353669844 2.3544915834
138 1 0.0 21.627391211 27.4704763093 1.5304201217e-11
140 1 0.0 23.0692288302 29.9677923435 1.5304201217e-11
141 1 0.0 23.0692288302 31.6326830186 2.3544915834
142 1 0.0 24.5110318456 29.1353669844 2.3544915834
143 1 0.0 21.627391211 29.1353669844 2.3544915834
144 1 0.0 25.9528694648 31.6326830186 2.3544915834
146 1 0.0 27.394707084 30.8002177025 4.7089732779
147 1 0.0 24.5110318456 30.8002177025 4.7089732779
165 1 0.0 21.627391211 30.8002177025 4.7089732779
254 1 0.0 25.9528694648 26.6380509503 2.3544915834
273 1 0.0 23.0692288302 26.6380509503 2.3544915834
274 1 0.0 23.0692288302 28.3029016683 4.7089732779
277 1 0.0 25.9528694648 28.3029016683 4.7089732779
25 1 0.0 33.1619883531 32.4651083777 1.5304201217e-11
27 1 0.0 30.2783477185 32.4651083777 1.5304201217e-11
121 1 0.0 31.7201853377 29.9677923435 1.5304201217e-11
122 1 0.0 33.1619883531 27.4704763093 1.5304201217e-11
123 1 0.0 30.2783477185 27.4704763093 1.5304201217e-11
124 1 0.0 33.1619883531 29.1353669844 2.3544915834
128 1 0.0 28.8365100993 29.9677923435 1.5304201217e-11
129 1 0.0 28.8365100993 31.6326830186 2.3544915834
130 1 0.0 30.2783477185 29.1353669844 2.3544915834
132 1 0.0 31.7201853377 31.6326830186 2.3544915834
134 1 0.0 33.1619883531 30.8002177025 4.7089732779
135 1 0.0 30.2783477185 30.8002177025 4.7089732779
246 1 0.0 31.7201853377 26.6380509503 2.3544915834
257 1 0.0 28.8365100993 26.6380509503 2.3544915834
258 1 0.0 28.8365100993 28.3029016683 4.7089732779
261 1 0.0 31.7201853377 28.3029016683 4.7089732779
20 1 0.0 4.3254781961 37.459740446 1.5304201217e-11
21 1 0.0 1.4418271804 37.459740446 1.5304201217e-11
23 1 0.0 4.3254781961 39.1246311211 2.3544915834
24 1 0.0 1.4418271804 39.1246311211 2.3544915834
81 1 0.0 5.7673158153 34.9624244118 1.5304201217e-11
97 1 0.0 1.1544220849e-13 34.9624244118 1.5304201217e-11
99 1 0.0 2.883650958 34.9624244118 1.5304201217e-11
100 1 0.0 2.883650958 36.627315087 2.3544915834
101 1 0.0 4.3254781961 34.1299990528 2.3544915834
102 1 0.0 1.4418271804 34.1299990528 2.3544915834
103 1 0.0 5.7673158153 36.627315087 2.3544915834
104 1 0.0 5.7673158153 38.292165805 4.7089732779
106 1 0.0 4.3254781961 35.7948497709 4.7089732779
112 1 0.0 1.1544220849e-13 36.627315087 2.3544915834
113 1 0.0 1.1544220849e-13 38.292165805 4.7089732779
114 1 0.0 1.4418271804 35.7948497709 4.7089732779
115 1 0.0 2.883650958 38.292165805 4.7089732779
220 1 0.0 2.883650958 33.2975337367 4.7089732779
223 1 0.0 5.7673158153 33.2975337367 4.7089732779
232 1 0.0 1.1544220849e-13 33.2975337367 4.7089732779
13 1 0.0 12.9764347036 37.459740446 1.5304201217e-11
16 1 0.0 10.092794069 37.459740446 1.5304201217e-11
17 1 0.0 7.2091188306 37.459740446 1.5304201217e-11
18 1 0.0 12.9764347036 39.1246311211 2.3544915834
19 1 0.0 10.092794069 39.1246311211 2.3544915834
22 1 0.0 7.2091188306 39.1246311211 2.3544915834
65 1 0.0 11.5345970844 34.9624244118 1.5304201217e-11
71 1 0.0 12.9764347036 34.1299990528 2.3544915834
84 1 0.0 8.6509564498 34.9624244118 1.5304201217e-11
85 1 0.0 8.6509564498 36.627315087 2.3544915834
86 1 0.0 10.092794069 34.1299990528 2.3544915834
87 1 0.0 7.2091188306 34.1299990528 2.3544915834
88 1 0.0 11.5345970844 36.627315087 2.3544915834
89 1 0.0 11.5345970844 38.292165805 4.7089732779
90 1 0.0 12.9764347036 35.7948497709 4.7089732779
91 1 0.0 10.092794069 35.7948497709 4.7089732779
105 1 0.0 7.2091188306 35.7948497709 4.7089732779
107 1 0.0 8.6509564498 38.292165805 4.7089732779
204 1 0.0 8.6509564498 33.2975337367 4.7089732779
207 1 0.0 11.5345970844 33.2975337367 4.7089732779
9 1 0.0 18.7437505765 37.459740446 1.5304201217e-11
12 1 0.0 15.8600753381 37.459740446 1.5304201217e-11
14 1 0.0 18.7437505765 39.1246311211 2.3544915834
15 1 0.0 15.8600753381 39.1246311211 2.3544915834
49 1 0.0 17.3019129573 34.9624244118 1.5304201217e-11
52 1 0.0 20.1855535919 34.9624244118 1.5304201217e-11
53 1 0.0 20.1855535919 36.627315087 2.3544915834
55 1 0.0 18.7437505765 34.1299990528 2.3544915834
68 1 0.0 14.4182723228 34.9624244118 1.5304201217e-11
69 1 0.0 14.4182723228 36.627315087 2.3544915834
70 1 0.0 15.8600753381 34.1299990528 2.3544915834
72 1 0.0 17.3019129573 36.627315087 2.3544915834
73 1 0.0 17.3019129573 38.292165805 4.7089732779
74 1 0.0 18.7437505765 35.7948497709 4.7089732779
75 1 0.0 15.8600753381 35.7948497709 4.7089732779
76 1 0.0 20.1855535919 38.292165805 4.7089732779
92 1 0.0 14.4182723228 38.292165805 4.7089732779
164 1 0.0 20.1855535919 33.2975337367 4.7089732779
184 1 0.0 14.4182723228 33.2975337367 4.7089732779
187 1 0.0 17.3019129573 33.2975337367 4.7089732779
4 1 0.0 27.394707084 37.459740446 1.5304201217e-11
5 1 0.0 24.5110318456 37.459740446 1.5304201217e-11
7 1 0.0 27.394707084 39.1246311211 2.3544915834
8 1 0.0 21.627391211 37.459740446 1.5304201217e-11
10 1 0.0 24.5110318456 39.1246311211 2.3544915834
11 1 0.0 21.627391211 39.1246311211 2.3544915834
34 1 0.0 23.0692288302 34.9624244118 1.5304201217e-11
37 1 0.0 25.9528694648 34.9624244118 1.5304201217e-11
38 1 0.0 25.9528694648 36.627315087 2.3544915834
39 1 0.0 27.394707084 34.1299990528 2.3544915834
40 1 0.0 24.5110318456 34.1299990528 2.3544915834
44 1 0.0 27.394707084 35.7948497709 4.7089732779
54 1 0.0 21.627391211 34.1299990528 2.3544915834
56 1 0.0 23.0692288302 36.627315087 2.3544915834
57 1 0.0 23.0692288302 38.292165805 4.7089732779
58 1 0.0 24.5110318456 35.7948497709 4.7089732779
59 1 0.0 21.627391211 35.7948497709 4.7089732779
60 1 0.0 25.9528694648 38.292165805 4.7089732779
145 1 0.0 25.9528694648 33.2975337367 4.7089732779
167 1 0.0 23.0692288302 33.2975337367 4.7089732779
1 1 0.0 33.1619883531 37.459740446 1.5304201217e-11
2 1 0.0 30.2783477185 37.459740446 1.5304201217e-11
3 1 0.0 33.1619883531 39.1246311211 2.3544915834
6 1 0.0 30.2783477185 39.1246311211 2.3544915834
26 1 0.0 28.8365100993 34.9624244118 1.5304201217e-11
29 1 0.0 31.7201853377 34.9624244118 1.5304201217e-11
30 1 0.0 31.7201853377 36.627315087 2.3544915834
31 1 0.0 33.1619883531 34.1299990528 2.3544915834
32 1 0.0 30.2783477185 34.1299990528 2.3544915834
33 1 0.0 33.1619883531 35.7948497709 4.7089732779