# LAMMPS data file written by OVITO Basic 3.8.0

971 atoms
4 atom types

-5.7673043287e-08 34.6038259723 xlo xhi
-6.6595094134e-08 39.9570564802 ylo yhi
-0.567115 42.3808583901 zlo zhi

Atom Type Labels

1 Au
2 S
3 C
4 H

Masses

1 196.97
2 32.06
3 12.011
4 1.008

Atoms  # charge

961 1 0.0 15.8747473604 21.2298233896 11.6761926182
970 2 0.0 17.8178906072 19.6533976377 11.82831434
963 3 0.0 12.7895048353 22.4027228275 12.501352031
967 4 0.0 12.694897975 21.3321933685 12.1441537363
968 4 0.0 12.9870234743 22.4383645219 13.6174410155
969 4 0.0 11.8607727485 23.0000408658 12.2424616474
966 4 0.0 20.0589727962 20.1691633236 12.2460692771
962 3 0.0 19.0548043687 20.6252731241 12.5252311042
964 4 0.0 18.8992947745 20.5988615097 13.6518423421
965 4 0.0 18.9737968119 21.6882906564 12.1368096328
971 2 0.0 14.1538990919 23.1681402027 11.7355896654
786 1 0.0 5.7673158153 4.9946320018 1.0422398722e-07
788 1 0.0 4.3254781961 2.4973159676 1.0422398722e-07
806 1 0.0 1.1544220849e-13 4.9946320018 1.0422398722e-07
807 1 0.0 1.4418271804 2.4973159676 1.0422398722e-07
808 1 0.0 2.883650958 4.9946320018 1.0422398722e-07
810 1 0.0 4.3254781961 4.1622066427 2.3544939014
811 1 0.0 1.4418271804 4.1622066427 2.3544939014
815 1 0.0 4.3254781961 5.8270573608 4.709000583
827 1 0.0 1.4418271804 5.8270573608 4.709000583
897 1 0.0 2.883650958 1.3330118032e-13 1.0422398722e-07
898 1 0.0 5.7673158153 1.3330118032e-13 1.0422398722e-07
899 1 0.0 5.7673158153 1.6648786214 2.3544939014
913 1 0.0 1.1544220849e-13 1.3330118032e-13 1.0422398722e-07
914 1 0.0 1.1544220849e-13 1.6648786214 2.3544939014
915 1 0.0 2.883650958 1.6648786214 2.3544939014
916 1 0.0 2.883650958 3.3297533137 4.709000583
917 1 0.0 4.3254781961 0.8324372796 4.709000583
918 1 0.0 1.4418271804 0.8324372796 4.709000583
919 1 0.0 5.7673158153 3.3297533137 4.709000583
928 1 0.0 1.1544220849e-13 3.3297533137 4.709000583
766 1 0.0 11.5345970844 4.9946320018 1.0422398722e-07
767 1 0.0 12.9764347036 2.4973159676 1.0422398722e-07
768 1 0.0 10.092794069 2.4973159676 1.0422398722e-07
772 1 0.0 12.9764347036 4.1622066427 2.3544939014
787 1 0.0 7.2091188306 2.4973159676 1.0422398722e-07
789 1 0.0 8.6509564498 4.9946320018 1.0422398722e-07
791 1 0.0 10.092794069 4.1622066427 2.3544939014
792 1 0.0 7.2091188306 4.1622066427 2.3544939014
795 1 0.0 12.9764347036 5.8270573608 4.709000583
796 1 0.0 10.092794069 5.8270573608 4.709000583
814 1 0.0 7.2091188306 5.8270573608 4.709000583
881 1 0.0 8.6509564498 1.3330118032e-13 1.0422398722e-07
882 1 0.0 11.5345970844 1.3330118032e-13 1.0422398722e-07
883 1 0.0 11.5345970844 1.6648786214 2.3544939014
887 1 0.0 12.9764347036 0.8324372796 4.709000583
900 1 0.0 8.6509564498 1.6648786214 2.3544939014
901 1 0.0 8.6509564498 3.3297533137 4.709000583
902 1 0.0 10.092794069 0.8324372796 4.709000583
903 1 0.0 7.2091188306 0.8324372796 4.709000583
904 1 0.0 11.5345970844 3.3297533137 4.709000583
746 1 0.0 17.3019129573 4.9946320018 1.0422398722e-07
747 1 0.0 18.7437505765 2.4973159676 1.0422398722e-07
748 1 0.0 15.8600753381 2.4973159676 1.0422398722e-07
749 1 0.0 20.1855535919 4.9946320018 1.0422398722e-07
752 1 0.0 18.7437505765 4.1622066427 2.3544939014
769 1 0.0 14.4182723228 4.9946320018 1.0422398722e-07
771 1 0.0 15.8600753381 4.1622066427 2.3544939014
775 1 0.0 18.7437505765 5.8270573608 4.709000583
776 1 0.0 15.8600753381 5.8270573608 4.709000583
850 1 0.0 20.1855535919 1.3330118032e-13 1.0422398722e-07
865 1 0.0 14.4182723228 1.3330118032e-13 1.0422398722e-07
866 1 0.0 17.3019129573 1.3330118032e-13 1.0422398722e-07
867 1 0.0 17.3019129573 1.6648786214 2.3544939014
868 1 0.0 20.1855535919 1.6648786214 2.3544939014
869 1 0.0 20.1855535919 3.3297533137 4.709000583
871 1 0.0 18.7437505765 0.8324372796 4.709000583
884 1 0.0 14.4182723228 1.6648786214 2.3544939014
885 1 0.0 14.4182723228 3.3297533137 4.709000583
886 1 0.0 15.8600753381 0.8324372796 4.709000583
888 1 0.0 17.3019129573 3.3297533137 4.709000583
724 1 0.0 27.394707084 2.4973159676 1.0422398722e-07
730 1 0.0 23.0692288302 4.9946320018 1.0422398722e-07
731 1 0.0 24.5110318456 2.4973159676 1.0422398722e-07
732 1 0.0 21.627391211 2.4973159676 1.0422398722e-07
733 1 0.0 25.9528694648 4.9946320018 1.0422398722e-07
735 1 0.0 27.394707084 4.1622066427 2.3544939014
736 1 0.0 24.5110318456 4.1622066427 2.3544939014
740 1 0.0 27.394707084 5.8270573608 4.709000583
751 1 0.0 21.627391211 4.1622066427 2.3544939014
755 1 0.0 24.5110318456 5.8270573608 4.709000583
756 1 0.0 21.627391211 5.8270573608 4.709000583
842 1 0.0 25.9528694648 1.3330118032e-13 1.0422398722e-07
851 1 0.0 23.0692288302 1.3330118032e-13 1.0422398722e-07
852 1 0.0 23.0692288302 1.6648786214 2.3544939014
853 1 0.0 25.9528694648 1.6648786214 2.3544939014
854 1 0.0 25.9528694648 3.3297533137 4.709000583
855 1 0.0 27.394707084 0.8324372796 4.709000583
856 1 0.0 24.5110318456 0.8324372796 4.709000583
870 1 0.0 21.627391211 0.8324372796 4.709000583
872 1 0.0 23.0692288302 3.3297533137 4.709000583
721 1 0.0 33.1619883531 2.4973159676 1.0422398722e-07
722 1 0.0 28.8365100993 4.9946320018 1.0422398722e-07
723 1 0.0 30.2783477185 2.4973159676 1.0422398722e-07
725 1 0.0 31.7201853377 4.9946320018 1.0422398722e-07
727 1 0.0 33.1619883531 4.1622066427 2.3544939014
728 1 0.0 30.2783477185 4.1622066427 2.3544939014
729 1 0.0 33.1619883531 5.8270573608 4.709000583
739 1 0.0 30.2783477185 5.8270573608 4.709000583
841 1 0.0 31.7201853377 1.3330118032e-13 1.0422398722e-07
843 1 0.0 28.8365100993 1.3330118032e-13 1.0422398722e-07
844 1 0.0 28.8365100993 1.6648786214 2.3544939014
845 1 0.0 31.7201853377 1.6648786214 2.3544939014
846 1 0.0 31.7201853377 3.3297533137 4.709000583
847 1 0.0 33.1619883531 0.8324372796 4.709000583
848 1 0.0 30.2783477185 0.8324372796 4.709000583
857 1 0.0 28.8365100993 3.3297533137 4.709000583
548 1 0.0 4.3254781961 12.4865801043 1.0422398722e-07
567 1 0.0 1.4418271804 12.4865801043 1.0422398722e-07
676 1 0.0 2.883650958 9.9892640701 1.0422398722e-07
677 1 0.0 4.3254781961 7.4919480359 1.0422398722e-07
678 1 0.0 1.4418271804 7.4919480359 1.0422398722e-07
679 1 0.0 5.7673158153 9.9892640701 1.0422398722e-07
680 1 0.0 5.7673158153 11.6541547452 2.3544939014
682 1 0.0 4.3254781961 9.1568387111 2.3544939014
696 1 0.0 1.1544220849e-13 9.9892640701 1.0422398722e-07
697 1 0.0 1.1544220849e-13 11.6541547452 2.3544939014
698 1 0.0 1.4418271804 9.1568387111 2.3544939014
699 1 0.0 2.883650958 11.6541547452 2.3544939014
701 1 0.0 4.3254781961 10.8216894291 4.709000583
702 1 0.0 1.4418271804 10.8216894291 4.709000583
809 1 0.0 2.883650958 6.6595226769 2.3544939014
812 1 0.0 5.7673158153 6.6595226769 2.3544939014
813 1 0.0 5.7673158153 8.324373395 4.709000583
825 1 0.0 1.1544220849e-13 6.6595226769 2.3544939014
826 1 0.0 1.1544220849e-13 8.324373395 4.709000583
828 1 0.0 2.883650958 8.324373395 4.709000583
527 1 0.0 12.9764347036 12.4865801043 1.0422398722e-07
528 1 0.0 10.092794069 12.4865801043 1.0422398722e-07
547 1 0.0 7.2091188306 12.4865801043 1.0422398722e-07
638 1 0.0 12.9764347036 7.4919480359 1.0422398722e-07
656 1 0.0 8.6509564498 9.9892640701 1.0422398722e-07
657 1 0.0 10.092794069 7.4919480359 1.0422398722e-07
658 1 0.0 7.2091188306 7.4919480359 1.0422398722e-07
659 1 0.0 11.5345970844 9.9892640701 1.0422398722e-07
660 1 0.0 11.5345970844 11.6541547452 2.3544939014
661 1 0.0 12.9764347036 9.1568387111 2.3544939014
662 1 0.0 10.092794069 9.1568387111 2.3544939014
666 1 0.0 12.9764347036 10.8216894291 4.709000583
681 1 0.0 7.2091188306 9.1568387111 2.3544939014
683 1 0.0 8.6509564498 11.6541547452 2.3544939014
685 1 0.0 10.092794069 10.8216894291 4.709000583
686 1 0.0 7.2091188306 10.8216894291 4.709000583
790 1 0.0 8.6509564498 6.6595226769 2.3544939014
793 1 0.0 11.5345970844 6.6595226769 2.3544939014
794 1 0.0 11.5345970844 8.324373395 4.709000583
816 1 0.0 8.6509564498 8.324373395 4.709000583
507 1 0.0 18.7437505765 12.4865801043 1.0422398722e-07
508 1 0.0 15.8600753381 12.4865801043 1.0422398722e-07
617 1 0.0 20.1855535919 9.9892640701 1.0422398722e-07
619 1 0.0 18.7437505765 7.4919480359 1.0422398722e-07
636 1 0.0 14.4182723228 9.9892640701 1.0422398722e-07
637 1 0.0 15.8600753381 7.4919480359 1.0422398722e-07
639 1 0.0 17.3019129573 9.9892640701 1.0422398722e-07
640 1 0.0 17.3019129573 11.6541547452 2.3544939014
641 1 0.0 18.7437505765 9.1568387111 2.3544939014
642 1 0.0 15.8600753381 9.1568387111 2.3544939014
643 1 0.0 20.1855535919 11.6541547452 2.3544939014
646 1 0.0 18.7437505765 10.8216894291 4.709000583
663 1 0.0 14.4182723228 11.6541547452 2.3544939014
665 1 0.0 15.8600753381 10.8216894291 4.709000583
750 1 0.0 20.1855535919 6.6595226769 2.3544939014
770 1 0.0 14.4182723228 6.6595226769 2.3544939014
773 1 0.0 17.3019129573 6.6595226769 2.3544939014
774 1 0.0 17.3019129573 8.324373395 4.709000583
777 1 0.0 20.1855535919 8.324373395 4.709000583
797 1 0.0 14.4182723228 8.324373395 4.709000583
484 1 0.0 27.394707084 12.4865801043 1.0422398722e-07
491 1 0.0 24.5110318456 12.4865801043 1.0422398722e-07
492 1 0.0 21.627391211 12.4865801043 1.0422398722e-07
605 1 0.0 25.9528694648 9.9892640701 1.0422398722e-07
606 1 0.0 27.394707084 7.4919480359 1.0422398722e-07
607 1 0.0 24.5110318456 7.4919480359 1.0422398722e-07
611 1 0.0 27.394707084 9.1568387111 2.3544939014
618 1 0.0 21.627391211 7.4919480359 1.0422398722e-07
620 1 0.0 23.0692288302 9.9892640701 1.0422398722e-07
621 1 0.0 23.0692288302 11.6541547452 2.3544939014
622 1 0.0 24.5110318456 9.1568387111 2.3544939014
623 1 0.0 21.627391211 9.1568387111 2.3544939014
624 1 0.0 25.9528694648 11.6541547452 2.3544939014
626 1 0.0 27.394707084 10.8216894291 4.709000583
627 1 0.0 24.5110318456 10.8216894291 4.709000583
645 1 0.0 21.627391211 10.8216894291 4.709000583
734 1 0.0 25.9528694648 6.6595226769 2.3544939014
753 1 0.0 23.0692288302 6.6595226769 2.3544939014
754 1 0.0 23.0692288302 8.324373395 4.709000583
757 1 0.0 25.9528694648 8.324373395 4.709000583
481 1 0.0 33.1619883531 12.4865801043 1.0422398722e-07
483 1 0.0 30.2783477185 12.4865801043 1.0422398722e-07
601 1 0.0 31.7201853377 9.9892640701 1.0422398722e-07
602 1 0.0 33.1619883531 7.4919480359 1.0422398722e-07
603 1 0.0 30.2783477185 7.4919480359 1.0422398722e-07
604 1 0.0 33.1619883531 9.1568387111 2.3544939014
608 1 0.0 28.8365100993 9.9892640701 1.0422398722e-07
609 1 0.0 28.8365100993 11.6541547452 2.3544939014
610 1 0.0 30.2783477185 9.1568387111 2.3544939014
612 1 0.0 31.7201853377 11.6541547452 2.3544939014
614 1 0.0 33.1619883531 10.8216894291 4.709000583
615 1 0.0 30.2783477185 10.8216894291 4.709000583
726 1 0.0 31.7201853377 6.6595226769 2.3544939014
737 1 0.0 28.8365100993 6.6595226769 2.3544939014
738 1 0.0 28.8365100993 8.324373395 4.709000583
741 1 0.0 31.7201853377 8.324373395 4.709000583
437 1 0.0 4.3254781961 17.4812121726 1.0422398722e-07
438 1 0.0 1.4418271804 17.4812121726 1.0422398722e-07
442 1 0.0 4.3254781961 19.1461028478 2.3544939014
458 1 0.0 1.4418271804 19.1461028478 2.3544939014
546 1 0.0 5.7673158153 14.9838961384 1.0422398722e-07
566 1 0.0 1.1544220849e-13 14.9838961384 1.0422398722e-07
568 1 0.0 2.883650958 14.9838961384 1.0422398722e-07
569 1 0.0 2.883650958 16.6487868136 2.3544939014
570 1 0.0 4.3254781961 14.1514707794 2.3544939014
571 1 0.0 1.4418271804 14.1514707794 2.3544939014
572 1 0.0 5.7673158153 16.6487868136 2.3544939014
573 1 0.0 5.7673158153 18.3136375317 4.709000583
575 1 0.0 4.3254781961 15.8163214975 4.709000583
585 1 0.0 1.1544220849e-13 16.6487868136 2.3544939014
586 1 0.0 1.1544220849e-13 18.3136375317 4.709000583
587 1 0.0 1.4418271804 15.8163214975 4.709000583
588 1 0.0 2.883650958 18.3136375317 4.709000583
700 1 0.0 2.883650958 13.3190054633 4.709000583
703 1 0.0 5.7673158153 13.3190054633 4.709000583
712 1 0.0 1.1544220849e-13 13.3190054633 4.709000583
398 1 0.0 12.9764347036 17.4812121726 1.0422398722e-07
417 1 0.0 10.092794069 17.4812121726 1.0422398722e-07
418 1 0.0 7.2091188306 17.4812121726 1.0422398722e-07
421 1 0.0 12.9764347036 19.1461028478 2.3544939014
422 1 0.0 10.092794069 19.1461028478 2.3544939014
441 1 0.0 7.2091188306 19.1461028478 2.3544939014
526 1 0.0 11.5345970844 14.9838961384 1.0422398722e-07
532 1 0.0 12.9764347036 14.1514707794 2.3544939014
549 1 0.0 8.6509564498 14.9838961384 1.0422398722e-07
550 1 0.0 8.6509564498 16.6487868136 2.3544939014
551 1 0.0 10.092794069 14.1514707794 2.3544939014
552 1 0.0 7.2091188306 14.1514707794 2.3544939014
553 1 0.0 11.5345970844 16.6487868136 2.3544939014
554 1 0.0 11.5345970844 18.3136375317 4.709000583
555 1 0.0 12.9764347036 15.8163214975 4.709000583
556 1 0.0 10.092794069 15.8163214975 4.709000583
574 1 0.0 7.2091188306 15.8163214975 4.709000583
576 1 0.0 8.6509564498 18.3136375317 4.709000583
684 1 0.0 8.6509564498 13.3190054633 4.709000583
687 1 0.0 11.5345970844 13.3190054633 4.709000583
379 1 0.0 18.7437505765 17.4812121726 1.0422398722e-07
397 1 0.0 15.8600753381 17.4812121726 1.0422398722e-07
401 1 0.0 18.7437505765 19.1461028478 2.3544939014
402 1 0.0 15.8600753381 19.1461028478 2.3544939014
506 1 0.0 17.3019129573 14.9838961384 1.0422398722e-07
509 1 0.0 20.1855535919 14.9838961384 1.0422398722e-07
510 1 0.0 20.1855535919 16.6487868136 2.3544939014
512 1 0.0 18.7437505765 14.1514707794 2.3544939014
529 1 0.0 14.4182723228 14.9838961384 1.0422398722e-07
530 1 0.0 14.4182723228 16.6487868136 2.3544939014
531 1 0.0 15.8600753381 14.1514707794 2.3544939014
533 1 0.0 17.3019129573 16.6487868136 2.3544939014
534 1 0.0 17.3019129573 18.3136375317 4.709000583
535 1 0.0 18.7437505765 15.8163214975 4.709000583
536 1 0.0 15.8600753381 15.8163214975 4.709000583
537 1 0.0 20.1855535919 18.3136375317 4.709000583
557 1 0.0 14.4182723228 18.3136375317 4.709000583
644 1 0.0 20.1855535919 13.3190054633 4.709000583
664 1 0.0 14.4182723228 13.3190054633 4.709000583
667 1 0.0 17.3019129573 13.3190054633 4.709000583
366 1 0.0 27.394707084 17.4812121726 1.0422398722e-07
367 1 0.0 24.5110318456 17.4812121726 1.0422398722e-07
371 1 0.0 27.394707084 19.1461028478 2.3544939014
378 1 0.0 21.627391211 17.4812121726 1.0422398722e-07
382 1 0.0 24.5110318456 19.1461028478 2.3544939014
383 1 0.0 21.627391211 19.1461028478 2.3544939014
490 1 0.0 23.0692288302 14.9838961384 1.0422398722e-07
493 1 0.0 25.9528694648 14.9838961384 1.0422398722e-07
494 1 0.0 25.9528694648 16.6487868136 2.3544939014
495 1 0.0 27.394707084 14.1514707794 2.3544939014
496 1 0.0 24.5110318456 14.1514707794 2.3544939014
500 1 0.0 27.394707084 15.8163214975 4.709000583
511 1 0.0 21.627391211 14.1514707794 2.3544939014
513 1 0.0 23.0692288302 16.6487868136 2.3544939014
514 1 0.0 23.0692288302 18.3136375317 4.709000583
515 1 0.0 24.5110318456 15.8163214975 4.709000583
516 1 0.0 21.627391211 15.8163214975 4.709000583
517 1 0.0 25.9528694648 18.3136375317 4.709000583
625 1 0.0 25.9528694648 13.3190054633 4.709000583
647 1 0.0 23.0692288302 13.3190054633 4.709000583
362 1 0.0 33.1619883531 17.4812121726 1.0422398722e-07
363 1 0.0 30.2783477185 17.4812121726 1.0422398722e-07
364 1 0.0 33.1619883531 19.1461028478 2.3544939014
370 1 0.0 30.2783477185 19.1461028478 2.3544939014
482 1 0.0 28.8365100993 14.9838961384 1.0422398722e-07
485 1 0.0 31.7201853377 14.9838961384 1.0422398722e-07
486 1 0.0 31.7201853377 16.6487868136 2.3544939014
487 1 0.0 33.1619883531 14.1514707794 2.3544939014
488 1 0.0 30.2783477185 14.1514707794 2.3544939014
489 1 0.0 33.1619883531 15.8163214975 4.709000583
497 1 0.0 28.8365100993 16.6487868136 2.3544939014
498 1 0.0 28.8365100993 18.3136375317 4.709000583
499 1 0.0 30.2783477185 15.8163214975 4.709000583
501 1 0.0 31.7201853377 18.3136375317 4.709000583
613 1 0.0 31.7201853377 13.3190054633 4.709000583
628 1 0.0 28.8365100993 13.3190054633 4.709000583
306 1 0.0 5.7673158153 24.9731602751 1.0422398722e-07
308 1 0.0 4.3254781961 22.475844241 1.0422398722e-07
326 1 0.0 1.1544220849e-13 24.9731602751 1.0422398722e-07
327 1 0.0 1.4418271804 22.475844241 1.0422398722e-07
328 1 0.0 2.883650958 24.9731602751 1.0422398722e-07
330 1 0.0 4.3254781961 24.1407349161 2.3544939014
331 1 0.0 1.4418271804 24.1407349161 2.3544939014
335 1 0.0 4.3254781961 25.8055856342 4.709000583
347 1 0.0 1.4418271804 25.8055856342 4.709000583
436 1 0.0 2.883650958 19.9785282068 1.0422398722e-07
439 1 0.0 5.7673158153 19.9785282068 1.0422398722e-07
440 1 0.0 5.7673158153 21.6434188819 2.3544939014
456 1 0.0 1.1544220849e-13 19.9785282068 1.0422398722e-07
457 1 0.0 1.1544220849e-13 21.6434188819 2.3544939014
459 1 0.0 2.883650958 21.6434188819 2.3544939014
460 1 0.0 2.883650958 23.3082696 4.709000583
461 1 0.0 4.3254781961 20.8109535658 4.709000583
462 1 0.0 1.4418271804 20.8109535658 4.709000583
463 1 0.0 5.7673158153 23.3082696 4.709000583
472 1 0.0 1.1544220849e-13 23.3082696 4.709000583
286 1 0.0 11.5345970844 24.9731602751 1.0422398722e-07
287 1 0.0 12.9764347036 22.475844241 1.0422398722e-07
288 1 0.0 10.092794069 22.475844241 1.0422398722e-07
292 1 0.0 12.9764347036 24.1407349161 2.3544939014
307 1 0.0 7.2091188306 22.475844241 1.0422398722e-07
309 1 0.0 8.6509564498 24.9731602751 1.0422398722e-07
311 1 0.0 10.092794069 24.1407349161 2.3544939014
312 1 0.0 7.2091188306 24.1407349161 2.3544939014
315 1 0.0 12.9764347036 25.8055856342 4.709000583
316 1 0.0 10.092794069 25.8055856342 4.709000583
334 1 0.0 7.2091188306 25.8055856342 4.709000583
416 1 0.0 8.6509564498 19.9785282068 1.0422398722e-07
419 1 0.0 11.5345970844 19.9785282068 1.0422398722e-07
420 1 0.0 11.5345970844 21.6434188819 2.3544939014
426 1 0.0 12.9764347036 20.8109535658 4.709000583
443 1 0.0 8.6509564498 21.6434188819 2.3544939014
444 1 0.0 8.6509564498 23.3082696 4.709000583
445 1 0.0 10.092794069 20.8109535658 4.709000583
446 1 0.0 7.2091188306 20.8109535658 4.709000583
447 1 0.0 11.5345970844 23.3082696 4.709000583
266 1 0.0 17.3019129573 24.9731602751 1.0422398722e-07
267 1 0.0 18.7437505765 22.475844241 1.0422398722e-07
268 1 0.0 15.8600753381 22.475844241 1.0422398722e-07
269 1 0.0 20.1855535919 24.9731602751 1.0422398722e-07
272 1 0.0 18.7437505765 24.1407349161 2.3544939014
289 1 0.0 14.4182723228 24.9731602751 1.0422398722e-07
291 1 0.0 15.8600753381 24.1407349161 2.3544939014
295 1 0.0 18.7437505765 25.8055856342 4.709000583
296 1 0.0 15.8600753381 25.8055856342 4.709000583
377 1 0.0 20.1855535919 19.9785282068 1.0422398722e-07
396 1 0.0 14.4182723228 19.9785282068 1.0422398722e-07
399 1 0.0 17.3019129573 19.9785282068 1.0422398722e-07
400 1 0.0 17.3019129573 21.6434188819 2.3544939014
403 1 0.0 20.1855535919 21.6434188819 2.3544939014
404 1 0.0 20.1855535919 23.3082696 4.709000583
406 1 0.0 18.7437505765 20.8109535658 4.709000583
423 1 0.0 14.4182723228 21.6434188819 2.3544939014
424 1 0.0 14.4182723228 23.3082696 4.709000583
425 1 0.0 15.8600753381 20.8109535658 4.709000583
427 1 0.0 17.3019129573 23.3082696 4.709000583
244 1 0.0 27.394707084 22.475844241 1.0422398722e-07
250 1 0.0 23.0692288302 24.9731602751 1.0422398722e-07
251 1 0.0 24.5110318456 22.475844241 1.0422398722e-07
252 1 0.0 21.627391211 22.475844241 1.0422398722e-07
253 1 0.0 25.9528694648 24.9731602751 1.0422398722e-07
255 1 0.0 27.394707084 24.1407349161 2.3544939014
256 1 0.0 24.5110318456 24.1407349161 2.3544939014
260 1 0.0 27.394707084 25.8055856342 4.709000583
271 1 0.0 21.627391211 24.1407349161 2.3544939014
275 1 0.0 24.5110318456 25.8055856342 4.709000583
276 1 0.0 21.627391211 25.8055856342 4.709000583
365 1 0.0 25.9528694648 19.9785282068 1.0422398722e-07
380 1 0.0 23.0692288302 19.9785282068 1.0422398722e-07
381 1 0.0 23.0692288302 21.6434188819 2.3544939014
384 1 0.0 25.9528694648 21.6434188819 2.3544939014
385 1 0.0 25.9528694648 23.3082696 4.709000583
386 1 0.0 27.394707084 20.8109535658 4.709000583
387 1 0.0 24.5110318456 20.8109535658 4.709000583
405 1 0.0 21.627391211 20.8109535658 4.709000583
407 1 0.0 23.0692288302 23.3082696 4.709000583
241 1 0.0 33.1619883531 22.475844241 1.0422398722e-07
242 1 0.0 28.8365100993 24.9731602751 1.0422398722e-07
243 1 0.0 30.2783477185 22.475844241 1.0422398722e-07
245 1 0.0 31.7201853377 24.9731602751 1.0422398722e-07
247 1 0.0 33.1619883531 24.1407349161 2.3544939014
248 1 0.0 30.2783477185 24.1407349161 2.3544939014
249 1 0.0 33.1619883531 25.8055856342 4.709000583
259 1 0.0 30.2783477185 25.8055856342 4.709000583
361 1 0.0 31.7201853377 19.9785282068 1.0422398722e-07
368 1 0.0 28.8365100993 19.9785282068 1.0422398722e-07
369 1 0.0 28.8365100993 21.6434188819 2.3544939014
372 1 0.0 31.7201853377 21.6434188819 2.3544939014
373 1 0.0 31.7201853377 23.3082696 4.709000583
374 1 0.0 33.1619883531 20.8109535658 4.709000583
375 1 0.0 30.2783477185 20.8109535658 4.709000583
388 1 0.0 28.8365100993 23.3082696 4.709000583
83 1 0.0 4.3254781961 32.4651083777 1.0422398722e-07
98 1 0.0 1.4418271804 32.4651083777 1.0422398722e-07
196 1 0.0 2.883650958 29.9677923435 1.0422398722e-07
197 1 0.0 4.3254781961 27.4704763093 1.0422398722e-07
198 1 0.0 1.4418271804 27.4704763093 1.0422398722e-07
199 1 0.0 5.7673158153 29.9677923435 1.0422398722e-07
200 1 0.0 5.7673158153 31.6326830186 2.3544939014
202 1 0.0 4.3254781961 29.1353669844 2.3544939014
216 1 0.0 1.1544220849e-13 29.9677923435 1.0422398722e-07
217 1 0.0 1.1544220849e-13 31.6326830186 2.3544939014
218 1 0.0 1.4418271804 29.1353669844 2.3544939014
219 1 0.0 2.883650958 31.6326830186 2.3544939014
221 1 0.0 4.3254781961 30.8002177025 4.709000583
222 1 0.0 1.4418271804 30.8002177025 4.709000583
329 1 0.0 2.883650958 26.6380509503 2.3544939014
332 1 0.0 5.7673158153 26.6380509503 2.3544939014
333 1 0.0 5.7673158153 28.3029016683 4.709000583
345 1 0.0 1.1544220849e-13 26.6380509503 2.3544939014
346 1 0.0 1.1544220849e-13 28.3029016683 4.709000583
348 1 0.0 2.883650958 28.3029016683 4.709000583
66 1 0.0 12.9764347036 32.4651083777 1.0422398722e-07
67 1 0.0 10.092794069 32.4651083777 1.0422398722e-07
82 1 0.0 7.2091188306 32.4651083777 1.0422398722e-07
158 1 0.0 12.9764347036 27.4704763093 1.0422398722e-07
176 1 0.0 8.6509564498 29.9677923435 1.0422398722e-07
177 1 0.0 10.092794069 27.4704763093 1.0422398722e-07
178 1 0.0 7.2091188306 27.4704763093 1.0422398722e-07
179 1 0.0 11.5345970844 29.9677923435 1.0422398722e-07
180 1 0.0 11.5345970844 31.6326830186 2.3544939014
181 1 0.0 12.9764347036 29.1353669844 2.3544939014
182 1 0.0 10.092794069 29.1353669844 2.3544939014
186 1 0.0 12.9764347036 30.8002177025 4.709000583
201 1 0.0 7.2091188306 29.1353669844 2.3544939014
203 1 0.0 8.6509564498 31.6326830186 2.3544939014
205 1 0.0 10.092794069 30.8002177025 4.709000583
206 1 0.0 7.2091188306 30.8002177025 4.709000583
310 1 0.0 8.6509564498 26.6380509503 2.3544939014
313 1 0.0 11.5345970844 26.6380509503 2.3544939014
314 1 0.0 11.5345970844 28.3029016683 4.709000583
336 1 0.0 8.6509564498 28.3029016683 4.709000583
50 1 0.0 18.7437505765 32.4651083777 1.0422398722e-07
51 1 0.0 15.8600753381 32.4651083777 1.0422398722e-07
137 1 0.0 20.1855535919 29.9677923435 1.0422398722e-07
139 1 0.0 18.7437505765 27.4704763093 1.0422398722e-07
156 1 0.0 14.4182723228 29.9677923435 1.0422398722e-07
157 1 0.0 15.8600753381 27.4704763093 1.0422398722e-07
159 1 0.0 17.3019129573 29.9677923435 1.0422398722e-07
160 1 0.0 17.3019129573 31.6326830186 2.3544939014
161 1 0.0 18.7437505765 29.1353669844 2.3544939014
162 1 0.0 15.8600753381 29.1353669844 2.3544939014
163 1 0.0 20.1855535919 31.6326830186 2.3544939014
166 1 0.0 18.7437505765 30.8002177025 4.709000583
183 1 0.0 14.4182723228 31.6326830186 2.3544939014
185 1 0.0 15.8600753381 30.8002177025 4.709000583
270 1 0.0 20.1855535919 26.6380509503 2.3544939014
290 1 0.0 14.4182723228 26.6380509503 2.3544939014
293 1 0.0 17.3019129573 26.6380509503 2.3544939014
294 1 0.0 17.3019129573 28.3029016683 4.709000583
297 1 0.0 20.1855535919 28.3029016683 4.709000583
317 1 0.0 14.4182723228 28.3029016683 4.709000583
28 1 0.0 27.394707084 32.4651083777 1.0422398722e-07
35 1 0.0 24.5110318456 32.4651083777 1.0422398722e-07
36 1 0.0 21.627391211 32.4651083777 1.0422398722e-07
125 1 0.0 25.9528694648 29.9677923435 1.0422398722e-07
126 1 0.0 27.394707084 27.4704763093 1.0422398722e-07
127 1 0.0 24.5110318456 27.4704763093 1.0422398722e-07
131 1 0.0 27.394707084 29.1353669844 2.3544939014
138 1 0.0 21.627391211 27.4704763093 1.0422398722e-07
140 1 0.0 23.0692288302 29.9677923435 1.0422398722e-07
141 1 0.0 23.0692288302 31.6326830186 2.3544939014
142 1 0.0 24.5110318456 29.1353669844 2.3544939014
143 1 0.0 21.627391211 29.1353669844 2.3544939014
144 1 0.0 25.9528694648 31.6326830186 2.3544939014
146 1 0.0 27.394707084 30.8002177025 4.709000583
147 1 0.0 24.5110318456 30.8002177025 4.709000583
165 1 0.0 21.627391211 30.8002177025 4.709000583
254 1 0.0 25.9528694648 26.6380509503 2.3544939014
273 1 0.0 23.0692288302 26.6380509503 2.3544939014
274 1 0.0 23.0692288302 28.3029016683 4.709000583
277 1 0.0 25.9528694648 28.3029016683 4.709000583
25 1 0.0 33.1619883531 32.4651083777 1.0422398722e-07
27 1 0.0 30.2783477185 32.4651083777 1.0422398722e-07
121 1 0.0 31.7201853377 29.9677923435 1.0422398722e-07
122 1 0.0 33.1619883531 27.4704763093 1.0422398722e-07
123 1 0.0 30.2783477185 27.4704763093 1.0422398722e-07
124 1 0.0 33.1619883531 29.1353669844 2.3544939014
128 1 0.0 28.8365100993 29.9677923435 1.0422398722e-07
129 1 0.0 28.8365100993 31.6326830186 2.3544939014
130 1 0.0 30.2783477185 29.1353669844 2.3544939014
132 1 0.0 31.7201853377 31.6326830186 2.3544939014
134 1 0.0 33.1619883531 30.8002177025 4.709000583
135 1 0.0 30.2783477185 30.8002177025 4.709000583
246 1 0.0 31.7201853377 26.6380509503 2.3544939014
257 1 0.0 28.8365100993 26.6380509503 2.3544939014
258 1 0.0 28.8365100993 28.3029016683 4.709000583
261 1 0.0 31.7201853377 28.3029016683 4.709000583
20 1 0.0 4.3254781961 37.459740446 1.0422398722e-07
21 1 0.0 1.4418271804 37.459740446 1.0422398722e-07
23 1 0.0 4.3254781961 39.1246311211 2.3544939014
24 1 0.0 1.4418271804 39.1246311211 2.3544939014
81 1 0.0 5.7673158153 34.9624244118 1.0422398722e-07
97 1 0.0 1.1544220849e-13 34.9624244118 1.0422398722e-07
99 1 0.0 2.883650958 34.9624244118 1.0422398722e-07
100 1 0.0 2.883650958 36.627315087 2.3544939014
101 1 0.0 4.3254781961 34.1299990528 2.3544939014
102 1 0.0 1.4418271804 34.1299990528 2.3544939014
103 1 0.0 5.7673158153 36.627315087 2.3544939014
104 1 0.0 5.7673158153 38.292165805 4.709000583
106 1 0.0 4.3254781961 35.7948497709 4.709000583
112 1 0.0 1.1544220849e-13 36.627315087 2.3544939014
113 1 0.0 1.1544220849e-13 38.292165805 4.709000583
114 1 0.0 1.4418271804 35.7948497709 4.709000583
115 1 0.0 2.883650958 38.292165805 4.709000583
220 1 0.0 2.883650958 33.2975337367 4.709000583
223 1 0.0 5.7673158153 33.2975337367 4.709000583
232 1 0.0 1.1544220849e-13 33.2975337367 4.709000583
13 1 0.0 12.9764347036 37.459740446 1.0422398722e-07
16 1 0.0 10.092794069 37.459740446 1.0422398722e-07
17 1 0.0 7.2091188306 37.459740446 1.0422398722e-07
18 1 0.0 12.9764347036 39.1246311211 2.3544939014
19 1 0.0 10.092794069 39.1246311211 2.3544939014
22 1 0.0 7.2091188306 39.1246311211 2.3544939014
65 1 0.0 11.5345970844 34.9624244118 1.0422398722e-07
71 1 0.0 12.9764347036 34.1299990528 2.3544939014
84 1 0.0 8.6509564498 34.9624244118 1.0422398722e-07
85 1 0.0 8.6509564498 36.627315087 2.3544939014
86 1 0.0 10.092794069 34.1299990528 2.3544939014
87 1 0.0 7.2091188306 34.1299990528 2.3544939014
88 1 0.0 11.5345970844 36.627315087 2.3544939014
89 1 0.0 11.5345970844 38.292165805 4.709000583
90 1 0.0 12.9764347036 35.7948497709 4.709000583
91 1 0.0 10.092794069 35.7948497709 4.709000583
105 1 0.0 7.2091188306 35.7948497709 4.709000583
107 1 0.0 8.6509564498 38.292165805 4.709000583
204 1 0.0 8.6509564498 33.2975337367 4.709000583
207 1 0.0 11.5345970844 33.2975337367 4.709000583
9 1 0.0 18.7437505765 37.459740446 1.0422398722e-07
12 1 0.0 15.8600753381 37.459740446 1.0422398722e-07
14 1 0.0 18.7437505765 39.1246311211 2.3544939014
15 1 0.0 15.8600753381 39.1246311211 2.3544939014
49 1 0.0 17.3019129573 34.9624244118 1.0422398722e-07
52 1 0.0 20.1855535919 34.9624244118 1.0422398722e-07
53 1 0.0 20.1855535919 36.627315087 2.3544939014
55 1 0.0 18.7437505765 34.1299990528 2.3544939014
68 1 0.0 14.4182723228 34.9624244118 1.0422398722e-07
69 1 0.0 14.4182723228 36.627315087 2.3544939014
70 1 0.0 15.8600753381 34.1299990528 2.3544939014
72 1 0.0 17.3019129573 36.627315087 2.3544939014
73 1 0.0 17.3019129573 38.292165805 4.709000583
74 1 0.0 18.7437505765 35.7948497709 4.709000583
75 1 0.0 15.8600753381 35.7948497709 4.709000583
76 1 0.0 20.1855535919 38.292165805 4.709000583
92 1 0.0 14.4182723228 38.292165805 4.709000583
164 1 0.0 20.1855535919 33.2975337367 4.709000583
184 1 0.0 14.4182723228 33.2975337367 4.709000583
187 1 0.0 17.3019129573 33.2975337367 4.709000583
4 1 0.0 27.394707084 37.459740446 1.0422398722e-07
5 1 0.0 24.5110318456 37.459740446 1.0422398722e-07
7 1 0.0 27.394707084 39.1246311211 2.3544939014
8 1 0.0 21.627391211 37.459740446 1.0422398722e-07
10 1 0.0 24.5110318456 39.1246311211 2.3544939014
11 1 0.0 21.627391211 39.1246311211 2.3544939014
34 1 0.0 23.0692288302 34.9624244118 1.0422398722e-07
37 1 0.0 25.9528694648 34.9624244118 1.0422398722e-07
38 1 0.0 25.9528694648 36.627315087 2.3544939014
39 1 0.0 27.394707084 34.1299990528 2.3544939014
40 1 0.0 24.5110318456 34.1299990528 2.3544939014
44 1 0.0 27.394707084 35.7948497709 4.709000583
54 1 0.0 21.627391211 34.1299990528 2.3544939014
56 1 0.0 23.0692288302 36.627315087 2.3544939014
57 1 0.0 23.0692288302 38.292165805 4.709000583
58 1 0.0 24.5110318456 35.7948497709 4.709000583
59 1 0.0 21.627391211 35.7948497709 4.709000583
60 1 0.0 25.9528694648 38.292165805 4.709000583
145 1 0.0 25.9528694648 33.2975337367 4.709000583
167 1 0.0 23.0692288302 33.2975337367 4.709000583
1 1 0.0 33.1619883531 37.459740446 1.0422398722e-07
2 1 0.0 30.2783477185 37.459740446 1.0422398722e-07
3 1 0.0 33.1619883531 39.1246311211 2.3544939014
6 1 0.0 30.2783477185 39.1246311211 2.3544939014
26 1 0.0 28.8365100993 34.9624244118 1.0422398722e-07
29 1 0.0 31.7201853377 34.9624244118 1.0422398722e-07
30 1 0.0 31.7201853377 36.627315087 2.3544939014
31 1 0.0 33.1619883531 34.1299990528 2.3544939014
32 1 0.0 30.2783477185 34.1299990528 2.3544939014